                                                                                      
                                       ``:oss/                                        
                           `.+s+.     .+ys--yh+     `./ss+.                           
                          -sh//yy+`   +yy   +yy    -+h+-oyy                           
                          -yh- .oyy/.-sh.   .syo-.:sy-  /yh                           
                 `.-.`    `yh+   -oyyyo.     `/syys:    oys      `.`                  
               `/+ssys+-` `sh+      `                   oys`   .:osyo`                
               -yh- ./syyooyo`                          .sys+/oyo--yh/                
               `yy+    .-:-.                             `-/+/:`  -sh-                
                /yh.                                              oys                 
          ``..---hho---------`   .---------..`      `.-----.`    -hd+---.             
       `./osmNMMMMMMMMMMMMMMMs. +NNMMMMMMMMNNmh+.   yNMMMMMNm-  oNMMMMMNmo++:`        
       +sy--/sdMMMhyyyyyyyNMMh- .oyNMMmyyyyyhNMMm+` -yMMMdyyo:` .oyyNMMNhs+syy`       
       -yy/   /MMM+.`-+/``mMMy-   `mMMh:`````.dMMN:` `MMMy-`-dhhy```mMMy:``+hs        
        -yy+` /MMMo:-mMM+`-oo/.    mMMh:     `dMMN/`  dMMm:`dMMMMy..MMMo-.+yo`        
         .sys`/MMMMNNMMMs-         mMMmyooooymMMNo:   oMMM/sMMMMMM++MMN//oh:          
          `sh+/MMMhyyMMMs- `-`     mMMMMMMMMMNmy+-`   -MMMhMMMsmMMmdMMd/yy+           
    `-/+++oyy-/MMM+.`/hh/.`mNm:`   mMMd+/////:-.`      NMMMMMd/:NMMMMMy:/yyo/:.`      
   +os+//:-..-oMMMo:--:::-/MMMo. .-mMMd+---`           hMMMMN+. oMMMMMo. `-+osyso:`   
   syo     `mNMMMMMNNNNNNNNMMMo.oNNMMMMMNNNN:`         +MMMMs:`  dMMMN/`     ``:syo   
   /yh`     :syyyyyyyyyyyyyyyy+.`+syyyyyyyyo:`         .oyys:`   .oyys:`        +yh   
   -yh-        ````````````````    `````````              ``        ``          oys   
   -+h/------------------------::::::::://////++++++++++++++++++++++///////::::/yd:   
   shdddddddddddddddddddddddddddddhhhhhhhhyyyyyssssssssssssssssyyyyyyyhhhhhhhddddh`   
                                                                                      
  S. Ponce, E. R. Margine, C. Verdi, and F. Giustino,                                 
                                                Comput. Phys. Commun. 209, 116 (2016) 
                                                                                      

     Program EPW v.5.1.0 starts on 11Apr2019 at 22:33:30 

     This program is part of the open-source Quantum ESPRESSO suite
     for quantum simulation of materials; please cite
         "P. Giannozzi et al., J. Phys.:Condens. Matter 21 395502 (2009);
         "P. Giannozzi et al., J. Phys.:Condens. Matter 29 465901 (2017);
          URL http://www.quantum-espresso.org", 
     in publications or presentations arising from this work. More details at
     http://www.quantum-espresso.org/quote

     Parallel version (MPI), running on     6 processors

     MPI processes distributed on     2 nodes
     K-points division:     npool     =       6

     Reading data from directory:
     ./Li.save/

     IMPORTANT: XC functional enforced from input :
     Exchange-correlation      = PBE ( 1  4  3  4 0 0)
     Any further DFT definition will be discarded
     Please, verify this is what you really want


     G-vector sticks info
     --------------------
     sticks:   dense  smooth     PW     G-vecs:    dense   smooth      PW
     Sum        1151    1151    411                24643    24643    5233


                                                                                

     bravais-lattice index     =            3
     lattice parameter (a_0)   =       6.5235  a.u.
     unit-cell volume          =     138.8072 (a.u.)^3
     number of atoms/cell      =            1
     number of atomic types    =            1
     kinetic-energy cut-off    =     120.0000  Ry
     charge density cut-off    =     480.0000  Ry
     Exchange-correlation      = PBE ( 1  4  3  4 0 0)


     celldm(1)=    6.52350  celldm(2)=    0.00000  celldm(3)=    0.00000
     celldm(4)=    0.00000  celldm(5)=    0.00000  celldm(6)=    0.00000

     crystal axes: (cart. coord. in units of a_0)
               a(1) = (  0.5000  0.5000  0.5000 )  
               a(2) = ( -0.5000  0.5000  0.5000 )  
               a(3) = ( -0.5000 -0.5000  0.5000 )  

     reciprocal axes: (cart. coord. in units 2 pi/a_0)
               b(1) = (  1.0000  0.0000  1.0000 )  
               b(2) = ( -1.0000  1.0000  0.0000 )  
               b(3) = (  0.0000 -1.0000  1.0000 )  


     Atoms inside the unit cell: 

   Cartesian axes

     site n.  atom      mass           positions (a_0 units)
        1        Li   6.9410   tau( 1) = (    0.00000    0.00000    0.00000  )

     49 Sym.Ops. (with q -> -q+G )


     G cutoff =  517.4196  (  24643 G-vectors)     FFT grid: ( 40, 40, 40)
     number of k points=  512  gaussian broad. (Ry)=  0.0250     ngauss =  -1
                       cart. coord. in units 2pi/a_0
        k(    1) = (   0.0000000   0.0000000   0.0000000), wk =   0.0039062
        k(    2) = (   0.0000000  -0.1250000   0.1250000), wk =   0.0039062
        k(    3) = (   0.0000000  -0.2500000   0.2500000), wk =   0.0039062
        k(    4) = (   0.0000000  -0.3750000   0.3750000), wk =   0.0039062
        k(    5) = (   0.0000000  -0.5000000   0.5000000), wk =   0.0039062
        k(    6) = (   0.0000000  -0.6250000   0.6250000), wk =   0.0039062
        k(    7) = (   0.0000000  -0.7500000   0.7500000), wk =   0.0039062
        k(    8) = (   0.0000000  -0.8750000   0.8750000), wk =   0.0039062
        k(    9) = (  -0.1250000   0.1250000   0.0000000), wk =   0.0039062
        k(   10) = (  -0.1250000   0.0000000   0.1250000), wk =   0.0039062
        k(   11) = (  -0.1250000  -0.1250000   0.2500000), wk =   0.0039062
        k(   12) = (  -0.1250000  -0.2500000   0.3750000), wk =   0.0039062
        k(   13) = (  -0.1250000  -0.3750000   0.5000000), wk =   0.0039062
        k(   14) = (  -0.1250000  -0.5000000   0.6250000), wk =   0.0039062
        k(   15) = (  -0.1250000  -0.6250000   0.7500000), wk =   0.0039062
        k(   16) = (  -0.1250000  -0.7500000   0.8750000), wk =   0.0039062
        k(   17) = (  -0.2500000   0.2500000   0.0000000), wk =   0.0039062
        k(   18) = (  -0.2500000   0.1250000   0.1250000), wk =   0.0039062
        k(   19) = (  -0.2500000   0.0000000   0.2500000), wk =   0.0039062
        k(   20) = (  -0.2500000  -0.1250000   0.3750000), wk =   0.0039062
        k(   21) = (  -0.2500000  -0.2500000   0.5000000), wk =   0.0039062
        k(   22) = (  -0.2500000  -0.3750000   0.6250000), wk =   0.0039062
        k(   23) = (  -0.2500000  -0.5000000   0.7500000), wk =   0.0039062
        k(   24) = (  -0.2500000  -0.6250000   0.8750000), wk =   0.0039062
        k(   25) = (  -0.3750000   0.3750000   0.0000000), wk =   0.0039062
        k(   26) = (  -0.3750000   0.2500000   0.1250000), wk =   0.0039062
        k(   27) = (  -0.3750000   0.1250000   0.2500000), wk =   0.0039062
        k(   28) = (  -0.3750000   0.0000000   0.3750000), wk =   0.0039062
        k(   29) = (  -0.3750000  -0.1250000   0.5000000), wk =   0.0039062
        k(   30) = (  -0.3750000  -0.2500000   0.6250000), wk =   0.0039062
        k(   31) = (  -0.3750000  -0.3750000   0.7500000), wk =   0.0039062
        k(   32) = (  -0.3750000  -0.5000000   0.8750000), wk =   0.0039062
        k(   33) = (  -0.5000000   0.5000000   0.0000000), wk =   0.0039062
        k(   34) = (  -0.5000000   0.3750000   0.1250000), wk =   0.0039062
        k(   35) = (  -0.5000000   0.2500000   0.2500000), wk =   0.0039062
        k(   36) = (  -0.5000000   0.1250000   0.3750000), wk =   0.0039062
        k(   37) = (  -0.5000000   0.0000000   0.5000000), wk =   0.0039062
        k(   38) = (  -0.5000000  -0.1250000   0.6250000), wk =   0.0039062
        k(   39) = (  -0.5000000  -0.2500000   0.7500000), wk =   0.0039062
        k(   40) = (  -0.5000000  -0.3750000   0.8750000), wk =   0.0039062
        k(   41) = (  -0.6250000   0.6250000   0.0000000), wk =   0.0039062
        k(   42) = (  -0.6250000   0.5000000   0.1250000), wk =   0.0039062
        k(   43) = (  -0.6250000   0.3750000   0.2500000), wk =   0.0039062
        k(   44) = (  -0.6250000   0.2500000   0.3750000), wk =   0.0039062
        k(   45) = (  -0.6250000   0.1250000   0.5000000), wk =   0.0039062
        k(   46) = (  -0.6250000   0.0000000   0.6250000), wk =   0.0039062
        k(   47) = (  -0.6250000  -0.1250000   0.7500000), wk =   0.0039062
        k(   48) = (  -0.6250000  -0.2500000   0.8750000), wk =   0.0039062
        k(   49) = (  -0.7500000   0.7500000   0.0000000), wk =   0.0039062
        k(   50) = (  -0.7500000   0.6250000   0.1250000), wk =   0.0039062
        k(   51) = (  -0.7500000   0.5000000   0.2500000), wk =   0.0039062
        k(   52) = (  -0.7500000   0.3750000   0.3750000), wk =   0.0039062
        k(   53) = (  -0.7500000   0.2500000   0.5000000), wk =   0.0039062
        k(   54) = (  -0.7500000   0.1250000   0.6250000), wk =   0.0039062
        k(   55) = (  -0.7500000   0.0000000   0.7500000), wk =   0.0039062
        k(   56) = (  -0.7500000  -0.1250000   0.8750000), wk =   0.0039062
        k(   57) = (  -0.8750000   0.8750000   0.0000000), wk =   0.0039062
        k(   58) = (  -0.8750000   0.7500000   0.1250000), wk =   0.0039062
        k(   59) = (  -0.8750000   0.6250000   0.2500000), wk =   0.0039062
        k(   60) = (  -0.8750000   0.5000000   0.3750000), wk =   0.0039062
        k(   61) = (  -0.8750000   0.3750000   0.5000000), wk =   0.0039062
        k(   62) = (  -0.8750000   0.2500000   0.6250000), wk =   0.0039062
        k(   63) = (  -0.8750000   0.1250000   0.7500000), wk =   0.0039062
        k(   64) = (  -0.8750000   0.0000000   0.8750000), wk =   0.0039062
        k(   65) = (   0.1250000   0.0000000   0.1250000), wk =   0.0039062
        k(   66) = (   0.1250000  -0.1250000   0.2500000), wk =   0.0039062
        k(   67) = (   0.1250000  -0.2500000   0.3750000), wk =   0.0039062
        k(   68) = (   0.1250000  -0.3750000   0.5000000), wk =   0.0039062
        k(   69) = (   0.1250000  -0.5000000   0.6250000), wk =   0.0039062
        k(   70) = (   0.1250000  -0.6250000   0.7500000), wk =   0.0039062
        k(   71) = (   0.1250000  -0.7500000   0.8750000), wk =   0.0039062
        k(   72) = (   0.1250000  -0.8750000   1.0000000), wk =   0.0039062
        k(   73) = (   0.0000000   0.1250000   0.1250000), wk =   0.0039062
        k(   74) = (   0.0000000   0.0000000   0.2500000), wk =   0.0039062
        k(   75) = (   0.0000000  -0.1250000   0.3750000), wk =   0.0039062
        k(   76) = (   0.0000000  -0.2500000   0.5000000), wk =   0.0039062
        k(   77) = (   0.0000000  -0.3750000   0.6250000), wk =   0.0039062
        k(   78) = (   0.0000000  -0.5000000   0.7500000), wk =   0.0039062
        k(   79) = (   0.0000000  -0.6250000   0.8750000), wk =   0.0039062
        k(   80) = (   0.0000000  -0.7500000   1.0000000), wk =   0.0039062
        k(   81) = (  -0.1250000   0.2500000   0.1250000), wk =   0.0039062
        k(   82) = (  -0.1250000   0.1250000   0.2500000), wk =   0.0039062
        k(   83) = (  -0.1250000   0.0000000   0.3750000), wk =   0.0039062
        k(   84) = (  -0.1250000  -0.1250000   0.5000000), wk =   0.0039062
        k(   85) = (  -0.1250000  -0.2500000   0.6250000), wk =   0.0039062
        k(   86) = (  -0.1250000  -0.3750000   0.7500000), wk =   0.0039062
        k(   87) = (  -0.1250000  -0.5000000   0.8750000), wk =   0.0039062
        k(   88) = (  -0.1250000  -0.6250000   1.0000000), wk =   0.0039062
        k(   89) = (  -0.2500000   0.3750000   0.1250000), wk =   0.0039062
        k(   90) = (  -0.2500000   0.2500000   0.2500000), wk =   0.0039062
        k(   91) = (  -0.2500000   0.1250000   0.3750000), wk =   0.0039062
        k(   92) = (  -0.2500000   0.0000000   0.5000000), wk =   0.0039062
        k(   93) = (  -0.2500000  -0.1250000   0.6250000), wk =   0.0039062
        k(   94) = (  -0.2500000  -0.2500000   0.7500000), wk =   0.0039062
        k(   95) = (  -0.2500000  -0.3750000   0.8750000), wk =   0.0039062
        k(   96) = (  -0.2500000  -0.5000000   1.0000000), wk =   0.0039062
        k(   97) = (  -0.3750000   0.5000000   0.1250000), wk =   0.0039062
        k(   98) = (  -0.3750000   0.3750000   0.2500000), wk =   0.0039062
        k(   99) = (  -0.3750000   0.2500000   0.3750000), wk =   0.0039062
        k(  100) = (  -0.3750000   0.1250000   0.5000000), wk =   0.0039062
        k(  101) = (  -0.3750000   0.0000000   0.6250000), wk =   0.0039062
        k(  102) = (  -0.3750000  -0.1250000   0.7500000), wk =   0.0039062
        k(  103) = (  -0.3750000  -0.2500000   0.8750000), wk =   0.0039062
        k(  104) = (  -0.3750000  -0.3750000   1.0000000), wk =   0.0039062
        k(  105) = (  -0.5000000   0.6250000   0.1250000), wk =   0.0039062
        k(  106) = (  -0.5000000   0.5000000   0.2500000), wk =   0.0039062
        k(  107) = (  -0.5000000   0.3750000   0.3750000), wk =   0.0039062
        k(  108) = (  -0.5000000   0.2500000   0.5000000), wk =   0.0039062
        k(  109) = (  -0.5000000   0.1250000   0.6250000), wk =   0.0039062
        k(  110) = (  -0.5000000   0.0000000   0.7500000), wk =   0.0039062
        k(  111) = (  -0.5000000  -0.1250000   0.8750000), wk =   0.0039062
        k(  112) = (  -0.5000000  -0.2500000   1.0000000), wk =   0.0039062
        k(  113) = (  -0.6250000   0.7500000   0.1250000), wk =   0.0039062
        k(  114) = (  -0.6250000   0.6250000   0.2500000), wk =   0.0039062
        k(  115) = (  -0.6250000   0.5000000   0.3750000), wk =   0.0039062
        k(  116) = (  -0.6250000   0.3750000   0.5000000), wk =   0.0039062
        k(  117) = (  -0.6250000   0.2500000   0.6250000), wk =   0.0039062
        k(  118) = (  -0.6250000   0.1250000   0.7500000), wk =   0.0039062
        k(  119) = (  -0.6250000   0.0000000   0.8750000), wk =   0.0039062
        k(  120) = (  -0.6250000  -0.1250000   1.0000000), wk =   0.0039062
        k(  121) = (  -0.7500000   0.8750000   0.1250000), wk =   0.0039062
        k(  122) = (  -0.7500000   0.7500000   0.2500000), wk =   0.0039062
        k(  123) = (  -0.7500000   0.6250000   0.3750000), wk =   0.0039062
        k(  124) = (  -0.7500000   0.5000000   0.5000000), wk =   0.0039062
        k(  125) = (  -0.7500000   0.3750000   0.6250000), wk =   0.0039062
        k(  126) = (  -0.7500000   0.2500000   0.7500000), wk =   0.0039062
        k(  127) = (  -0.7500000   0.1250000   0.8750000), wk =   0.0039062
        k(  128) = (  -0.7500000   0.0000000   1.0000000), wk =   0.0039062
        k(  129) = (   0.2500000   0.0000000   0.2500000), wk =   0.0039062
        k(  130) = (   0.2500000  -0.1250000   0.3750000), wk =   0.0039062
        k(  131) = (   0.2500000  -0.2500000   0.5000000), wk =   0.0039062
        k(  132) = (   0.2500000  -0.3750000   0.6250000), wk =   0.0039062
        k(  133) = (   0.2500000  -0.5000000   0.7500000), wk =   0.0039062
        k(  134) = (   0.2500000  -0.6250000   0.8750000), wk =   0.0039062
        k(  135) = (   0.2500000  -0.7500000   1.0000000), wk =   0.0039062
        k(  136) = (   0.2500000  -0.8750000   1.1250000), wk =   0.0039062
        k(  137) = (   0.1250000   0.1250000   0.2500000), wk =   0.0039062
        k(  138) = (   0.1250000   0.0000000   0.3750000), wk =   0.0039062
        k(  139) = (   0.1250000  -0.1250000   0.5000000), wk =   0.0039062
        k(  140) = (   0.1250000  -0.2500000   0.6250000), wk =   0.0039062
        k(  141) = (   0.1250000  -0.3750000   0.7500000), wk =   0.0039062
        k(  142) = (   0.1250000  -0.5000000   0.8750000), wk =   0.0039062
        k(  143) = (   0.1250000  -0.6250000   1.0000000), wk =   0.0039062
        k(  144) = (   0.1250000  -0.7500000   1.1250000), wk =   0.0039062
        k(  145) = (   0.0000000   0.2500000   0.2500000), wk =   0.0039062
        k(  146) = (   0.0000000   0.1250000   0.3750000), wk =   0.0039062
        k(  147) = (   0.0000000   0.0000000   0.5000000), wk =   0.0039062
        k(  148) = (   0.0000000  -0.1250000   0.6250000), wk =   0.0039062
        k(  149) = (   0.0000000  -0.2500000   0.7500000), wk =   0.0039062
        k(  150) = (   0.0000000  -0.3750000   0.8750000), wk =   0.0039062
        k(  151) = (   0.0000000  -0.5000000   1.0000000), wk =   0.0039062
        k(  152) = (   0.0000000  -0.6250000   1.1250000), wk =   0.0039062
        k(  153) = (  -0.1250000   0.3750000   0.2500000), wk =   0.0039062
        k(  154) = (  -0.1250000   0.2500000   0.3750000), wk =   0.0039062
        k(  155) = (  -0.1250000   0.1250000   0.5000000), wk =   0.0039062
        k(  156) = (  -0.1250000   0.0000000   0.6250000), wk =   0.0039062
        k(  157) = (  -0.1250000  -0.1250000   0.7500000), wk =   0.0039062
        k(  158) = (  -0.1250000  -0.2500000   0.8750000), wk =   0.0039062
        k(  159) = (  -0.1250000  -0.3750000   1.0000000), wk =   0.0039062
        k(  160) = (  -0.1250000  -0.5000000   1.1250000), wk =   0.0039062
        k(  161) = (  -0.2500000   0.5000000   0.2500000), wk =   0.0039062
        k(  162) = (  -0.2500000   0.3750000   0.3750000), wk =   0.0039062
        k(  163) = (  -0.2500000   0.2500000   0.5000000), wk =   0.0039062
        k(  164) = (  -0.2500000   0.1250000   0.6250000), wk =   0.0039062
        k(  165) = (  -0.2500000   0.0000000   0.7500000), wk =   0.0039062
        k(  166) = (  -0.2500000  -0.1250000   0.8750000), wk =   0.0039062
        k(  167) = (  -0.2500000  -0.2500000   1.0000000), wk =   0.0039062
        k(  168) = (  -0.2500000  -0.3750000   1.1250000), wk =   0.0039062
        k(  169) = (  -0.3750000   0.6250000   0.2500000), wk =   0.0039062
        k(  170) = (  -0.3750000   0.5000000   0.3750000), wk =   0.0039062
        k(  171) = (  -0.3750000   0.3750000   0.5000000), wk =   0.0039062
        k(  172) = (  -0.3750000   0.2500000   0.6250000), wk =   0.0039062
        k(  173) = (  -0.3750000   0.1250000   0.7500000), wk =   0.0039062
        k(  174) = (  -0.3750000   0.0000000   0.8750000), wk =   0.0039062
        k(  175) = (  -0.3750000  -0.1250000   1.0000000), wk =   0.0039062
        k(  176) = (  -0.3750000  -0.2500000   1.1250000), wk =   0.0039062
        k(  177) = (  -0.5000000   0.7500000   0.2500000), wk =   0.0039062
        k(  178) = (  -0.5000000   0.6250000   0.3750000), wk =   0.0039062
        k(  179) = (  -0.5000000   0.5000000   0.5000000), wk =   0.0039062
        k(  180) = (  -0.5000000   0.3750000   0.6250000), wk =   0.0039062
        k(  181) = (  -0.5000000   0.2500000   0.7500000), wk =   0.0039062
        k(  182) = (  -0.5000000   0.1250000   0.8750000), wk =   0.0039062
        k(  183) = (  -0.5000000   0.0000000   1.0000000), wk =   0.0039062
        k(  184) = (  -0.5000000  -0.1250000   1.1250000), wk =   0.0039062
        k(  185) = (  -0.6250000   0.8750000   0.2500000), wk =   0.0039062
        k(  186) = (  -0.6250000   0.7500000   0.3750000), wk =   0.0039062
        k(  187) = (  -0.6250000   0.6250000   0.5000000), wk =   0.0039062
        k(  188) = (  -0.6250000   0.5000000   0.6250000), wk =   0.0039062
        k(  189) = (  -0.6250000   0.3750000   0.7500000), wk =   0.0039062
        k(  190) = (  -0.6250000   0.2500000   0.8750000), wk =   0.0039062
        k(  191) = (  -0.6250000   0.1250000   1.0000000), wk =   0.0039062
        k(  192) = (  -0.6250000   0.0000000   1.1250000), wk =   0.0039062
        k(  193) = (   0.3750000   0.0000000   0.3750000), wk =   0.0039062
        k(  194) = (   0.3750000  -0.1250000   0.5000000), wk =   0.0039062
        k(  195) = (   0.3750000  -0.2500000   0.6250000), wk =   0.0039062
        k(  196) = (   0.3750000  -0.3750000   0.7500000), wk =   0.0039062
        k(  197) = (   0.3750000  -0.5000000   0.8750000), wk =   0.0039062
        k(  198) = (   0.3750000  -0.6250000   1.0000000), wk =   0.0039062
        k(  199) = (   0.3750000  -0.7500000   1.1250000), wk =   0.0039062
        k(  200) = (   0.3750000  -0.8750000   1.2500000), wk =   0.0039062
        k(  201) = (   0.2500000   0.1250000   0.3750000), wk =   0.0039062
        k(  202) = (   0.2500000   0.0000000   0.5000000), wk =   0.0039062
        k(  203) = (   0.2500000  -0.1250000   0.6250000), wk =   0.0039062
        k(  204) = (   0.2500000  -0.2500000   0.7500000), wk =   0.0039062
        k(  205) = (   0.2500000  -0.3750000   0.8750000), wk =   0.0039062
        k(  206) = (   0.2500000  -0.5000000   1.0000000), wk =   0.0039062
        k(  207) = (   0.2500000  -0.6250000   1.1250000), wk =   0.0039062
        k(  208) = (   0.2500000  -0.7500000   1.2500000), wk =   0.0039062
        k(  209) = (   0.1250000   0.2500000   0.3750000), wk =   0.0039062
        k(  210) = (   0.1250000   0.1250000   0.5000000), wk =   0.0039062
        k(  211) = (   0.1250000   0.0000000   0.6250000), wk =   0.0039062
        k(  212) = (   0.1250000  -0.1250000   0.7500000), wk =   0.0039062
        k(  213) = (   0.1250000  -0.2500000   0.8750000), wk =   0.0039062
        k(  214) = (   0.1250000  -0.3750000   1.0000000), wk =   0.0039062
        k(  215) = (   0.1250000  -0.5000000   1.1250000), wk =   0.0039062
        k(  216) = (   0.1250000  -0.6250000   1.2500000), wk =   0.0039062
        k(  217) = (   0.0000000   0.3750000   0.3750000), wk =   0.0039062
        k(  218) = (   0.0000000   0.2500000   0.5000000), wk =   0.0039062
        k(  219) = (   0.0000000   0.1250000   0.6250000), wk =   0.0039062
        k(  220) = (   0.0000000   0.0000000   0.7500000), wk =   0.0039062
        k(  221) = (   0.0000000  -0.1250000   0.8750000), wk =   0.0039062
        k(  222) = (   0.0000000  -0.2500000   1.0000000), wk =   0.0039062
        k(  223) = (   0.0000000  -0.3750000   1.1250000), wk =   0.0039062
        k(  224) = (   0.0000000  -0.5000000   1.2500000), wk =   0.0039062
        k(  225) = (  -0.1250000   0.5000000   0.3750000), wk =   0.0039062
        k(  226) = (  -0.1250000   0.3750000   0.5000000), wk =   0.0039062
        k(  227) = (  -0.1250000   0.2500000   0.6250000), wk =   0.0039062
        k(  228) = (  -0.1250000   0.1250000   0.7500000), wk =   0.0039062
        k(  229) = (  -0.1250000   0.0000000   0.8750000), wk =   0.0039062
        k(  230) = (  -0.1250000  -0.1250000   1.0000000), wk =   0.0039062
        k(  231) = (  -0.1250000  -0.2500000   1.1250000), wk =   0.0039062
        k(  232) = (  -0.1250000  -0.3750000   1.2500000), wk =   0.0039062
        k(  233) = (  -0.2500000   0.6250000   0.3750000), wk =   0.0039062
        k(  234) = (  -0.2500000   0.5000000   0.5000000), wk =   0.0039062
        k(  235) = (  -0.2500000   0.3750000   0.6250000), wk =   0.0039062
        k(  236) = (  -0.2500000   0.2500000   0.7500000), wk =   0.0039062
        k(  237) = (  -0.2500000   0.1250000   0.8750000), wk =   0.0039062
        k(  238) = (  -0.2500000   0.0000000   1.0000000), wk =   0.0039062
        k(  239) = (  -0.2500000  -0.1250000   1.1250000), wk =   0.0039062
        k(  240) = (  -0.2500000  -0.2500000   1.2500000), wk =   0.0039062
        k(  241) = (  -0.3750000   0.7500000   0.3750000), wk =   0.0039062
        k(  242) = (  -0.3750000   0.6250000   0.5000000), wk =   0.0039062
        k(  243) = (  -0.3750000   0.5000000   0.6250000), wk =   0.0039062
        k(  244) = (  -0.3750000   0.3750000   0.7500000), wk =   0.0039062
        k(  245) = (  -0.3750000   0.2500000   0.8750000), wk =   0.0039062
        k(  246) = (  -0.3750000   0.1250000   1.0000000), wk =   0.0039062
        k(  247) = (  -0.3750000   0.0000000   1.1250000), wk =   0.0039062
        k(  248) = (  -0.3750000  -0.1250000   1.2500000), wk =   0.0039062
        k(  249) = (  -0.5000000   0.8750000   0.3750000), wk =   0.0039062
        k(  250) = (  -0.5000000   0.7500000   0.5000000), wk =   0.0039062
        k(  251) = (  -0.5000000   0.6250000   0.6250000), wk =   0.0039062
        k(  252) = (  -0.5000000   0.5000000   0.7500000), wk =   0.0039062
        k(  253) = (  -0.5000000   0.3750000   0.8750000), wk =   0.0039062
        k(  254) = (  -0.5000000   0.2500000   1.0000000), wk =   0.0039062
        k(  255) = (  -0.5000000   0.1250000   1.1250000), wk =   0.0039062
        k(  256) = (  -0.5000000   0.0000000   1.2500000), wk =   0.0039062
        k(  257) = (   0.5000000   0.0000000   0.5000000), wk =   0.0039062
        k(  258) = (   0.5000000  -0.1250000   0.6250000), wk =   0.0039062
        k(  259) = (   0.5000000  -0.2500000   0.7500000), wk =   0.0039062
        k(  260) = (   0.5000000  -0.3750000   0.8750000), wk =   0.0039062
        k(  261) = (   0.5000000  -0.5000000   1.0000000), wk =   0.0039062
        k(  262) = (   0.5000000  -0.6250000   1.1250000), wk =   0.0039062
        k(  263) = (   0.5000000  -0.7500000   1.2500000), wk =   0.0039062
        k(  264) = (   0.5000000  -0.8750000   1.3750000), wk =   0.0039062
        k(  265) = (   0.3750000   0.1250000   0.5000000), wk =   0.0039062
        k(  266) = (   0.3750000   0.0000000   0.6250000), wk =   0.0039062
        k(  267) = (   0.3750000  -0.1250000   0.7500000), wk =   0.0039062
        k(  268) = (   0.3750000  -0.2500000   0.8750000), wk =   0.0039062
        k(  269) = (   0.3750000  -0.3750000   1.0000000), wk =   0.0039062
        k(  270) = (   0.3750000  -0.5000000   1.1250000), wk =   0.0039062
        k(  271) = (   0.3750000  -0.6250000   1.2500000), wk =   0.0039062
        k(  272) = (   0.3750000  -0.7500000   1.3750000), wk =   0.0039062
        k(  273) = (   0.2500000   0.2500000   0.5000000), wk =   0.0039062
        k(  274) = (   0.2500000   0.1250000   0.6250000), wk =   0.0039062
        k(  275) = (   0.2500000   0.0000000   0.7500000), wk =   0.0039062
        k(  276) = (   0.2500000  -0.1250000   0.8750000), wk =   0.0039062
        k(  277) = (   0.2500000  -0.2500000   1.0000000), wk =   0.0039062
        k(  278) = (   0.2500000  -0.3750000   1.1250000), wk =   0.0039062
        k(  279) = (   0.2500000  -0.5000000   1.2500000), wk =   0.0039062
        k(  280) = (   0.2500000  -0.6250000   1.3750000), wk =   0.0039062
        k(  281) = (   0.1250000   0.3750000   0.5000000), wk =   0.0039062
        k(  282) = (   0.1250000   0.2500000   0.6250000), wk =   0.0039062
        k(  283) = (   0.1250000   0.1250000   0.7500000), wk =   0.0039062
        k(  284) = (   0.1250000   0.0000000   0.8750000), wk =   0.0039062
        k(  285) = (   0.1250000  -0.1250000   1.0000000), wk =   0.0039062
        k(  286) = (   0.1250000  -0.2500000   1.1250000), wk =   0.0039062
        k(  287) = (   0.1250000  -0.3750000   1.2500000), wk =   0.0039062
        k(  288) = (   0.1250000  -0.5000000   1.3750000), wk =   0.0039062
        k(  289) = (   0.0000000   0.5000000   0.5000000), wk =   0.0039062
        k(  290) = (   0.0000000   0.3750000   0.6250000), wk =   0.0039062
        k(  291) = (   0.0000000   0.2500000   0.7500000), wk =   0.0039062
        k(  292) = (   0.0000000   0.1250000   0.8750000), wk =   0.0039062
        k(  293) = (   0.0000000   0.0000000   1.0000000), wk =   0.0039062
        k(  294) = (   0.0000000  -0.1250000   1.1250000), wk =   0.0039062
        k(  295) = (   0.0000000  -0.2500000   1.2500000), wk =   0.0039062
        k(  296) = (   0.0000000  -0.3750000   1.3750000), wk =   0.0039062
        k(  297) = (  -0.1250000   0.6250000   0.5000000), wk =   0.0039062
        k(  298) = (  -0.1250000   0.5000000   0.6250000), wk =   0.0039062
        k(  299) = (  -0.1250000   0.3750000   0.7500000), wk =   0.0039062
        k(  300) = (  -0.1250000   0.2500000   0.8750000), wk =   0.0039062
        k(  301) = (  -0.1250000   0.1250000   1.0000000), wk =   0.0039062
        k(  302) = (  -0.1250000   0.0000000   1.1250000), wk =   0.0039062
        k(  303) = (  -0.1250000  -0.1250000   1.2500000), wk =   0.0039062
        k(  304) = (  -0.1250000  -0.2500000   1.3750000), wk =   0.0039062
        k(  305) = (  -0.2500000   0.7500000   0.5000000), wk =   0.0039062
        k(  306) = (  -0.2500000   0.6250000   0.6250000), wk =   0.0039062
        k(  307) = (  -0.2500000   0.5000000   0.7500000), wk =   0.0039062
        k(  308) = (  -0.2500000   0.3750000   0.8750000), wk =   0.0039062
        k(  309) = (  -0.2500000   0.2500000   1.0000000), wk =   0.0039062
        k(  310) = (  -0.2500000   0.1250000   1.1250000), wk =   0.0039062
        k(  311) = (  -0.2500000   0.0000000   1.2500000), wk =   0.0039062
        k(  312) = (  -0.2500000  -0.1250000   1.3750000), wk =   0.0039062
        k(  313) = (  -0.3750000   0.8750000   0.5000000), wk =   0.0039062
        k(  314) = (  -0.3750000   0.7500000   0.6250000), wk =   0.0039062
        k(  315) = (  -0.3750000   0.6250000   0.7500000), wk =   0.0039062
        k(  316) = (  -0.3750000   0.5000000   0.8750000), wk =   0.0039062
        k(  317) = (  -0.3750000   0.3750000   1.0000000), wk =   0.0039062
        k(  318) = (  -0.3750000   0.2500000   1.1250000), wk =   0.0039062
        k(  319) = (  -0.3750000   0.1250000   1.2500000), wk =   0.0039062
        k(  320) = (  -0.3750000   0.0000000   1.3750000), wk =   0.0039062
        k(  321) = (   0.6250000   0.0000000   0.6250000), wk =   0.0039062
        k(  322) = (   0.6250000  -0.1250000   0.7500000), wk =   0.0039062
        k(  323) = (   0.6250000  -0.2500000   0.8750000), wk =   0.0039062
        k(  324) = (   0.6250000  -0.3750000   1.0000000), wk =   0.0039062
        k(  325) = (   0.6250000  -0.5000000   1.1250000), wk =   0.0039062
        k(  326) = (   0.6250000  -0.6250000   1.2500000), wk =   0.0039062
        k(  327) = (   0.6250000  -0.7500000   1.3750000), wk =   0.0039062
        k(  328) = (   0.6250000  -0.8750000   1.5000000), wk =   0.0039062
        k(  329) = (   0.5000000   0.1250000   0.6250000), wk =   0.0039062
        k(  330) = (   0.5000000   0.0000000   0.7500000), wk =   0.0039062
        k(  331) = (   0.5000000  -0.1250000   0.8750000), wk =   0.0039062
        k(  332) = (   0.5000000  -0.2500000   1.0000000), wk =   0.0039062
        k(  333) = (   0.5000000  -0.3750000   1.1250000), wk =   0.0039062
        k(  334) = (   0.5000000  -0.5000000   1.2500000), wk =   0.0039062
        k(  335) = (   0.5000000  -0.6250000   1.3750000), wk =   0.0039062
        k(  336) = (   0.5000000  -0.7500000   1.5000000), wk =   0.0039062
        k(  337) = (   0.3750000   0.2500000   0.6250000), wk =   0.0039062
        k(  338) = (   0.3750000   0.1250000   0.7500000), wk =   0.0039062
        k(  339) = (   0.3750000   0.0000000   0.8750000), wk =   0.0039062
        k(  340) = (   0.3750000  -0.1250000   1.0000000), wk =   0.0039062
        k(  341) = (   0.3750000  -0.2500000   1.1250000), wk =   0.0039062
        k(  342) = (   0.3750000  -0.3750000   1.2500000), wk =   0.0039062
        k(  343) = (   0.3750000  -0.5000000   1.3750000), wk =   0.0039062
        k(  344) = (   0.3750000  -0.6250000   1.5000000), wk =   0.0039062
        k(  345) = (   0.2500000   0.3750000   0.6250000), wk =   0.0039062
        k(  346) = (   0.2500000   0.2500000   0.7500000), wk =   0.0039062
        k(  347) = (   0.2500000   0.1250000   0.8750000), wk =   0.0039062
        k(  348) = (   0.2500000   0.0000000   1.0000000), wk =   0.0039062
        k(  349) = (   0.2500000  -0.1250000   1.1250000), wk =   0.0039062
        k(  350) = (   0.2500000  -0.2500000   1.2500000), wk =   0.0039062
        k(  351) = (   0.2500000  -0.3750000   1.3750000), wk =   0.0039062
        k(  352) = (   0.2500000  -0.5000000   1.5000000), wk =   0.0039062
        k(  353) = (   0.1250000   0.5000000   0.6250000), wk =   0.0039062
        k(  354) = (   0.1250000   0.3750000   0.7500000), wk =   0.0039062
        k(  355) = (   0.1250000   0.2500000   0.8750000), wk =   0.0039062
        k(  356) = (   0.1250000   0.1250000   1.0000000), wk =   0.0039062
        k(  357) = (   0.1250000   0.0000000   1.1250000), wk =   0.0039062
        k(  358) = (   0.1250000  -0.1250000   1.2500000), wk =   0.0039062
        k(  359) = (   0.1250000  -0.2500000   1.3750000), wk =   0.0039062
        k(  360) = (   0.1250000  -0.3750000   1.5000000), wk =   0.0039062
        k(  361) = (   0.0000000   0.6250000   0.6250000), wk =   0.0039062
        k(  362) = (   0.0000000   0.5000000   0.7500000), wk =   0.0039062
        k(  363) = (   0.0000000   0.3750000   0.8750000), wk =   0.0039062
        k(  364) = (   0.0000000   0.2500000   1.0000000), wk =   0.0039062
        k(  365) = (   0.0000000   0.1250000   1.1250000), wk =   0.0039062
        k(  366) = (   0.0000000   0.0000000   1.2500000), wk =   0.0039062
        k(  367) = (   0.0000000  -0.1250000   1.3750000), wk =   0.0039062
        k(  368) = (   0.0000000  -0.2500000   1.5000000), wk =   0.0039062
        k(  369) = (  -0.1250000   0.7500000   0.6250000), wk =   0.0039062
        k(  370) = (  -0.1250000   0.6250000   0.7500000), wk =   0.0039062
        k(  371) = (  -0.1250000   0.5000000   0.8750000), wk =   0.0039062
        k(  372) = (  -0.1250000   0.3750000   1.0000000), wk =   0.0039062
        k(  373) = (  -0.1250000   0.2500000   1.1250000), wk =   0.0039062
        k(  374) = (  -0.1250000   0.1250000   1.2500000), wk =   0.0039062
        k(  375) = (  -0.1250000   0.0000000   1.3750000), wk =   0.0039062
        k(  376) = (  -0.1250000  -0.1250000   1.5000000), wk =   0.0039062
        k(  377) = (  -0.2500000   0.8750000   0.6250000), wk =   0.0039062
        k(  378) = (  -0.2500000   0.7500000   0.7500000), wk =   0.0039062
        k(  379) = (  -0.2500000   0.6250000   0.8750000), wk =   0.0039062
        k(  380) = (  -0.2500000   0.5000000   1.0000000), wk =   0.0039062
        k(  381) = (  -0.2500000   0.3750000   1.1250000), wk =   0.0039062
        k(  382) = (  -0.2500000   0.2500000   1.2500000), wk =   0.0039062
        k(  383) = (  -0.2500000   0.1250000   1.3750000), wk =   0.0039062
        k(  384) = (  -0.2500000   0.0000000   1.5000000), wk =   0.0039062
        k(  385) = (   0.7500000   0.0000000   0.7500000), wk =   0.0039062
        k(  386) = (   0.7500000  -0.1250000   0.8750000), wk =   0.0039062
        k(  387) = (   0.7500000  -0.2500000   1.0000000), wk =   0.0039062
        k(  388) = (   0.7500000  -0.3750000   1.1250000), wk =   0.0039062
        k(  389) = (   0.7500000  -0.5000000   1.2500000), wk =   0.0039062
        k(  390) = (   0.7500000  -0.6250000   1.3750000), wk =   0.0039062
        k(  391) = (   0.7500000  -0.7500000   1.5000000), wk =   0.0039062
        k(  392) = (   0.7500000  -0.8750000   1.6250000), wk =   0.0039062
        k(  393) = (   0.6250000   0.1250000   0.7500000), wk =   0.0039062
        k(  394) = (   0.6250000   0.0000000   0.8750000), wk =   0.0039062
        k(  395) = (   0.6250000  -0.1250000   1.0000000), wk =   0.0039062
        k(  396) = (   0.6250000  -0.2500000   1.1250000), wk =   0.0039062
        k(  397) = (   0.6250000  -0.3750000   1.2500000), wk =   0.0039062
        k(  398) = (   0.6250000  -0.5000000   1.3750000), wk =   0.0039062
        k(  399) = (   0.6250000  -0.6250000   1.5000000), wk =   0.0039062
        k(  400) = (   0.6250000  -0.7500000   1.6250000), wk =   0.0039062
        k(  401) = (   0.5000000   0.2500000   0.7500000), wk =   0.0039062
        k(  402) = (   0.5000000   0.1250000   0.8750000), wk =   0.0039062
        k(  403) = (   0.5000000   0.0000000   1.0000000), wk =   0.0039062
        k(  404) = (   0.5000000  -0.1250000   1.1250000), wk =   0.0039062
        k(  405) = (   0.5000000  -0.2500000   1.2500000), wk =   0.0039062
        k(  406) = (   0.5000000  -0.3750000   1.3750000), wk =   0.0039062
        k(  407) = (   0.5000000  -0.5000000   1.5000000), wk =   0.0039062
        k(  408) = (   0.5000000  -0.6250000   1.6250000), wk =   0.0039062
        k(  409) = (   0.3750000   0.3750000   0.7500000), wk =   0.0039062
        k(  410) = (   0.3750000   0.2500000   0.8750000), wk =   0.0039062
        k(  411) = (   0.3750000   0.1250000   1.0000000), wk =   0.0039062
        k(  412) = (   0.3750000   0.0000000   1.1250000), wk =   0.0039062
        k(  413) = (   0.3750000  -0.1250000   1.2500000), wk =   0.0039062
        k(  414) = (   0.3750000  -0.2500000   1.3750000), wk =   0.0039062
        k(  415) = (   0.3750000  -0.3750000   1.5000000), wk =   0.0039062
        k(  416) = (   0.3750000  -0.5000000   1.6250000), wk =   0.0039062
        k(  417) = (   0.2500000   0.5000000   0.7500000), wk =   0.0039062
        k(  418) = (   0.2500000   0.3750000   0.8750000), wk =   0.0039062
        k(  419) = (   0.2500000   0.2500000   1.0000000), wk =   0.0039062
        k(  420) = (   0.2500000   0.1250000   1.1250000), wk =   0.0039062
        k(  421) = (   0.2500000   0.0000000   1.2500000), wk =   0.0039062
        k(  422) = (   0.2500000  -0.1250000   1.3750000), wk =   0.0039062
        k(  423) = (   0.2500000  -0.2500000   1.5000000), wk =   0.0039062
        k(  424) = (   0.2500000  -0.3750000   1.6250000), wk =   0.0039062
        k(  425) = (   0.1250000   0.6250000   0.7500000), wk =   0.0039062
        k(  426) = (   0.1250000   0.5000000   0.8750000), wk =   0.0039062
        k(  427) = (   0.1250000   0.3750000   1.0000000), wk =   0.0039062
        k(  428) = (   0.1250000   0.2500000   1.1250000), wk =   0.0039062
        k(  429) = (   0.1250000   0.1250000   1.2500000), wk =   0.0039062
        k(  430) = (   0.1250000   0.0000000   1.3750000), wk =   0.0039062
        k(  431) = (   0.1250000  -0.1250000   1.5000000), wk =   0.0039062
        k(  432) = (   0.1250000  -0.2500000   1.6250000), wk =   0.0039062
        k(  433) = (   0.0000000   0.7500000   0.7500000), wk =   0.0039062
        k(  434) = (   0.0000000   0.6250000   0.8750000), wk =   0.0039062
        k(  435) = (   0.0000000   0.5000000   1.0000000), wk =   0.0039062
        k(  436) = (   0.0000000   0.3750000   1.1250000), wk =   0.0039062
        k(  437) = (   0.0000000   0.2500000   1.2500000), wk =   0.0039062
        k(  438) = (   0.0000000   0.1250000   1.3750000), wk =   0.0039062
        k(  439) = (   0.0000000   0.0000000   1.5000000), wk =   0.0039062
        k(  440) = (   0.0000000  -0.1250000   1.6250000), wk =   0.0039062
        k(  441) = (  -0.1250000   0.8750000   0.7500000), wk =   0.0039062
        k(  442) = (  -0.1250000   0.7500000   0.8750000), wk =   0.0039062
        k(  443) = (  -0.1250000   0.6250000   1.0000000), wk =   0.0039062
        k(  444) = (  -0.1250000   0.5000000   1.1250000), wk =   0.0039062
        k(  445) = (  -0.1250000   0.3750000   1.2500000), wk =   0.0039062
        k(  446) = (  -0.1250000   0.2500000   1.3750000), wk =   0.0039062
        k(  447) = (  -0.1250000   0.1250000   1.5000000), wk =   0.0039062
        k(  448) = (  -0.1250000   0.0000000   1.6250000), wk =   0.0039062
        k(  449) = (   0.8750000   0.0000000   0.8750000), wk =   0.0039062
        k(  450) = (   0.8750000  -0.1250000   1.0000000), wk =   0.0039062
        k(  451) = (   0.8750000  -0.2500000   1.1250000), wk =   0.0039062
        k(  452) = (   0.8750000  -0.3750000   1.2500000), wk =   0.0039062
        k(  453) = (   0.8750000  -0.5000000   1.3750000), wk =   0.0039062
        k(  454) = (   0.8750000  -0.6250000   1.5000000), wk =   0.0039062
        k(  455) = (   0.8750000  -0.7500000   1.6250000), wk =   0.0039062
        k(  456) = (   0.8750000  -0.8750000   1.7500000), wk =   0.0039062
        k(  457) = (   0.7500000   0.1250000   0.8750000), wk =   0.0039062
        k(  458) = (   0.7500000   0.0000000   1.0000000), wk =   0.0039062
        k(  459) = (   0.7500000  -0.1250000   1.1250000), wk =   0.0039062
        k(  460) = (   0.7500000  -0.2500000   1.2500000), wk =   0.0039062
        k(  461) = (   0.7500000  -0.3750000   1.3750000), wk =   0.0039062
        k(  462) = (   0.7500000  -0.5000000   1.5000000), wk =   0.0039062
        k(  463) = (   0.7500000  -0.6250000   1.6250000), wk =   0.0039062
        k(  464) = (   0.7500000  -0.7500000   1.7500000), wk =   0.0039062
        k(  465) = (   0.6250000   0.2500000   0.8750000), wk =   0.0039062
        k(  466) = (   0.6250000   0.1250000   1.0000000), wk =   0.0039062
        k(  467) = (   0.6250000   0.0000000   1.1250000), wk =   0.0039062
        k(  468) = (   0.6250000  -0.1250000   1.2500000), wk =   0.0039062
        k(  469) = (   0.6250000  -0.2500000   1.3750000), wk =   0.0039062
        k(  470) = (   0.6250000  -0.3750000   1.5000000), wk =   0.0039062
        k(  471) = (   0.6250000  -0.5000000   1.6250000), wk =   0.0039062
        k(  472) = (   0.6250000  -0.6250000   1.7500000), wk =   0.0039062
        k(  473) = (   0.5000000   0.3750000   0.8750000), wk =   0.0039062
        k(  474) = (   0.5000000   0.2500000   1.0000000), wk =   0.0039062
        k(  475) = (   0.5000000   0.1250000   1.1250000), wk =   0.0039062
        k(  476) = (   0.5000000   0.0000000   1.2500000), wk =   0.0039062
        k(  477) = (   0.5000000  -0.1250000   1.3750000), wk =   0.0039062
        k(  478) = (   0.5000000  -0.2500000   1.5000000), wk =   0.0039062
        k(  479) = (   0.5000000  -0.3750000   1.6250000), wk =   0.0039062
        k(  480) = (   0.5000000  -0.5000000   1.7500000), wk =   0.0039062
        k(  481) = (   0.3750000   0.5000000   0.8750000), wk =   0.0039062
        k(  482) = (   0.3750000   0.3750000   1.0000000), wk =   0.0039062
        k(  483) = (   0.3750000   0.2500000   1.1250000), wk =   0.0039062
        k(  484) = (   0.3750000   0.1250000   1.2500000), wk =   0.0039062
        k(  485) = (   0.3750000   0.0000000   1.3750000), wk =   0.0039062
        k(  486) = (   0.3750000  -0.1250000   1.5000000), wk =   0.0039062
        k(  487) = (   0.3750000  -0.2500000   1.6250000), wk =   0.0039062
        k(  488) = (   0.3750000  -0.3750000   1.7500000), wk =   0.0039062
        k(  489) = (   0.2500000   0.6250000   0.8750000), wk =   0.0039062
        k(  490) = (   0.2500000   0.5000000   1.0000000), wk =   0.0039062
        k(  491) = (   0.2500000   0.3750000   1.1250000), wk =   0.0039062
        k(  492) = (   0.2500000   0.2500000   1.2500000), wk =   0.0039062
        k(  493) = (   0.2500000   0.1250000   1.3750000), wk =   0.0039062
        k(  494) = (   0.2500000   0.0000000   1.5000000), wk =   0.0039062
        k(  495) = (   0.2500000  -0.1250000   1.6250000), wk =   0.0039062
        k(  496) = (   0.2500000  -0.2500000   1.7500000), wk =   0.0039062
        k(  497) = (   0.1250000   0.7500000   0.8750000), wk =   0.0039062
        k(  498) = (   0.1250000   0.6250000   1.0000000), wk =   0.0039062
        k(  499) = (   0.1250000   0.5000000   1.1250000), wk =   0.0039062
        k(  500) = (   0.1250000   0.3750000   1.2500000), wk =   0.0039062
        k(  501) = (   0.1250000   0.2500000   1.3750000), wk =   0.0039062
        k(  502) = (   0.1250000   0.1250000   1.5000000), wk =   0.0039062
        k(  503) = (   0.1250000   0.0000000   1.6250000), wk =   0.0039062
        k(  504) = (   0.1250000  -0.1250000   1.7500000), wk =   0.0039062
        k(  505) = (   0.0000000   0.8750000   0.8750000), wk =   0.0039062
        k(  506) = (   0.0000000   0.7500000   1.0000000), wk =   0.0039062
        k(  507) = (   0.0000000   0.6250000   1.1250000), wk =   0.0039062
        k(  508) = (   0.0000000   0.5000000   1.2500000), wk =   0.0039062
        k(  509) = (   0.0000000   0.3750000   1.3750000), wk =   0.0039062
        k(  510) = (   0.0000000   0.2500000   1.5000000), wk =   0.0039062
        k(  511) = (   0.0000000   0.1250000   1.6250000), wk =   0.0039062
        k(  512) = (   0.0000000   0.0000000   1.7500000), wk =   0.0039062

     PseudoPot. # 1 for Li read from file:
     ./Li_ONCV_PBE-1.0.upf
     MD5 check sum: bbae8bca9f993d5710bb78a551a8984a
     Pseudo is Norm-conserving, Zval =  3.0
     Generated using ONCVPSP code by D. R. Hamann
     Using radial grid of  602 points,  4 beta functions with: 
                l(1) =   0
                l(2) =   0
                l(3) =   1
                l(4) =   1
     EPW          :      1.28s CPU      2.99s WALL

     EPW          :      2.01s CPU      3.82s WALL

     No wavefunction gauge setting applied
     -------------------------------------------------------------------
     Wannierization on  8 x  8 x  8 electronic grid
     -------------------------------------------------------------------

     Spin CASE ( default = unpolarized )

     Initializing Wannier90


     Initial Wannier projections

     (   0.99756   0.56682   0.96592) :  l =   0 mr =   1
     (   0.74793   0.36739   0.48064) :  l =   0 mr =   1
     (   0.07375   0.00536   0.34708) :  l =   0 mr =   1
     (   0.34224   0.21795   0.13316) :  l =   0 mr =   1
     (   0.90052   0.38677   0.44548) :  l =   0 mr =   1
     (   0.66193   0.01611   0.65085) :  l =   0 mr =   1

      - Number of bands is (  6)
      - Number of total bands is (  6)
      - Number of excluded bands is (  0)
      - Number of wannier functions is (  6)
      - All guiding functions are given 

  Reading data about k-point neighbours 

      - All neighbours are found 

     AMN
      k points =   512 in    6 pools
            1 of   86 on ionode
            2 of   86 on ionode
            3 of   86 on ionode
            4 of   86 on ionode
            5 of   86 on ionode
            6 of   86 on ionode
            7 of   86 on ionode
            8 of   86 on ionode
            9 of   86 on ionode
           10 of   86 on ionode
           11 of   86 on ionode
           12 of   86 on ionode
           13 of   86 on ionode
           14 of   86 on ionode
           15 of   86 on ionode
           16 of   86 on ionode
           17 of   86 on ionode
           18 of   86 on ionode
           19 of   86 on ionode
           20 of   86 on ionode
           21 of   86 on ionode
           22 of   86 on ionode
           23 of   86 on ionode
           24 of   86 on ionode
           25 of   86 on ionode
           26 of   86 on ionode
           27 of   86 on ionode
           28 of   86 on ionode
           29 of   86 on ionode
           30 of   86 on ionode
           31 of   86 on ionode
           32 of   86 on ionode
           33 of   86 on ionode
           34 of   86 on ionode
           35 of   86 on ionode
           36 of   86 on ionode
           37 of   86 on ionode
           38 of   86 on ionode
           39 of   86 on ionode
           40 of   86 on ionode
           41 of   86 on ionode
           42 of   86 on ionode
           43 of   86 on ionode
           44 of   86 on ionode
           45 of   86 on ionode
           46 of   86 on ionode
           47 of   86 on ionode
           48 of   86 on ionode
           49 of   86 on ionode
           50 of   86 on ionode
           51 of   86 on ionode
           52 of   86 on ionode
           53 of   86 on ionode
           54 of   86 on ionode
           55 of   86 on ionode
           56 of   86 on ionode
           57 of   86 on ionode
           58 of   86 on ionode
           59 of   86 on ionode
           60 of   86 on ionode
           61 of   86 on ionode
           62 of   86 on ionode
           63 of   86 on ionode
           64 of   86 on ionode
           65 of   86 on ionode
           66 of   86 on ionode
           67 of   86 on ionode
           68 of   86 on ionode
           69 of   86 on ionode
           70 of   86 on ionode
           71 of   86 on ionode
           72 of   86 on ionode
           73 of   86 on ionode
           74 of   86 on ionode
           75 of   86 on ionode
           76 of   86 on ionode
           77 of   86 on ionode
           78 of   86 on ionode
           79 of   86 on ionode
           80 of   86 on ionode
           81 of   86 on ionode
           82 of   86 on ionode
           83 of   86 on ionode
           84 of   86 on ionode
           85 of   86 on ionode
           86 of   86 on ionode

     AMN calculated

     MMN
      k points =   512 in    6 pools
            1 of   86 on ionode
            2 of   86 on ionode
            3 of   86 on ionode
            4 of   86 on ionode
            5 of   86 on ionode
            6 of   86 on ionode
            7 of   86 on ionode
            8 of   86 on ionode
            9 of   86 on ionode
           10 of   86 on ionode
           11 of   86 on ionode
           12 of   86 on ionode
           13 of   86 on ionode
           14 of   86 on ionode
           15 of   86 on ionode
           16 of   86 on ionode
           17 of   86 on ionode
           18 of   86 on ionode
           19 of   86 on ionode
           20 of   86 on ionode
           21 of   86 on ionode
           22 of   86 on ionode
           23 of   86 on ionode
           24 of   86 on ionode
           25 of   86 on ionode
           26 of   86 on ionode
           27 of   86 on ionode
           28 of   86 on ionode
           29 of   86 on ionode
           30 of   86 on ionode
           31 of   86 on ionode
           32 of   86 on ionode
           33 of   86 on ionode
           34 of   86 on ionode
           35 of   86 on ionode
           36 of   86 on ionode
           37 of   86 on ionode
           38 of   86 on ionode
           39 of   86 on ionode
           40 of   86 on ionode
           41 of   86 on ionode
           42 of   86 on ionode
           43 of   86 on ionode
           44 of   86 on ionode
           45 of   86 on ionode
           46 of   86 on ionode
           47 of   86 on ionode
           48 of   86 on ionode
           49 of   86 on ionode
           50 of   86 on ionode
           51 of   86 on ionode
           52 of   86 on ionode
           53 of   86 on ionode
           54 of   86 on ionode
           55 of   86 on ionode
           56 of   86 on ionode
           57 of   86 on ionode
           58 of   86 on ionode
           59 of   86 on ionode
           60 of   86 on ionode
           61 of   86 on ionode
           62 of   86 on ionode
           63 of   86 on ionode
           64 of   86 on ionode
           65 of   86 on ionode
           66 of   86 on ionode
           67 of   86 on ionode
           68 of   86 on ionode
           69 of   86 on ionode
           70 of   86 on ionode
           71 of   86 on ionode
           72 of   86 on ionode
           73 of   86 on ionode
           74 of   86 on ionode
           75 of   86 on ionode
           76 of   86 on ionode
           77 of   86 on ionode
           78 of   86 on ionode
           79 of   86 on ionode
           80 of   86 on ionode
           81 of   86 on ionode
           82 of   86 on ionode
           83 of   86 on ionode
           84 of   86 on ionode
           85 of   86 on ionode
           86 of   86 on ionode
     MMN calculated

     Running Wannier90

     Wannier Function centers (cartesian, alat) and spreads (ang):

     (  -0.22759   0.22131   1.20939) :   7.39202
     (  -0.20960   0.37284   0.75196) :   4.17365
     (  -0.00969  -0.01376   0.00486) :   0.44698
     (   0.22045   0.28906   0.35840) :   7.97383
     (  -0.02689   0.62518   1.01420) :   5.87301
     (  -0.02897   0.00207   0.62454) :   5.17370

     -------------------------------------------------------------------
     WANNIER      :    121.49s CPU    124.50s WALL (       1 calls)
     -------------------------------------------------------------------

     Dipole matrix elements calculated


     Calculating kgmap

     Progress kgmap: ########################################
     kmaps        :      9.61s CPU      9.91s WALL (       1 calls)
     Symmetries of Bravais lattice:  48
     Symmetries of crystal:          48


     ===================================================================
     irreducible q point #    1
     ===================================================================

     Symmetries of small group of q: 48
          in addition sym. q -> -q+G:

     Number of q in the star =    1
     List of q in the star:
          1   0.000000000   0.000000000   0.000000000
     Imposing acoustic sum rule on the dynamical matrix

        q(    1 ) = (   0.0000000   0.0000000   0.0000000 )


     ===================================================================
     irreducible q point #    2
     ===================================================================

     Symmetries of small group of q:  4

     Number of q in the star =   12
     List of q in the star:
          1   0.000000000  -0.125000000   0.125000000
          2   0.125000000   0.000000000   0.125000000
          3  -0.125000000   0.000000000   0.125000000
          4   0.000000000   0.125000000   0.125000000
          5   0.125000000  -0.125000000   0.000000000
          6  -0.125000000   0.000000000  -0.125000000
          7   0.125000000   0.000000000  -0.125000000
          8   0.000000000  -0.125000000  -0.125000000
          9  -0.125000000  -0.125000000   0.000000000
         10  -0.125000000   0.125000000   0.000000000
         11   0.125000000   0.125000000   0.000000000
         12   0.000000000   0.125000000  -0.125000000

        q(    2 ) = (   0.0000000  -0.1250000   0.1250000 )
        q(    3 ) = (   0.1250000   0.0000000   0.1250000 )
        q(    4 ) = (  -0.1250000   0.0000000   0.1250000 )
        q(    5 ) = (   0.0000000   0.1250000   0.1250000 )
        q(    6 ) = (   0.1250000  -0.1250000   0.0000000 )
        q(    7 ) = (  -0.1250000   0.0000000  -0.1250000 )
        q(    8 ) = (   0.1250000   0.0000000  -0.1250000 )
        q(    9 ) = (   0.0000000  -0.1250000  -0.1250000 )
        q(   10 ) = (  -0.1250000  -0.1250000   0.0000000 )
        q(   11 ) = (  -0.1250000   0.1250000   0.0000000 )
        q(   12 ) = (   0.1250000   0.1250000   0.0000000 )
        q(   13 ) = (   0.0000000   0.1250000  -0.1250000 )


     ===================================================================
     irreducible q point #    3
     ===================================================================

     Symmetries of small group of q:  4

     Number of q in the star =   12
     List of q in the star:
          1   0.000000000  -0.250000000   0.250000000
          2   0.250000000   0.000000000   0.250000000
          3  -0.250000000   0.000000000   0.250000000
          4   0.000000000   0.250000000   0.250000000
          5   0.250000000  -0.250000000   0.000000000
          6  -0.250000000   0.000000000  -0.250000000
          7   0.250000000   0.000000000  -0.250000000
          8   0.000000000  -0.250000000  -0.250000000
          9  -0.250000000  -0.250000000   0.000000000
         10  -0.250000000   0.250000000   0.000000000
         11   0.250000000   0.250000000   0.000000000
         12   0.000000000   0.250000000  -0.250000000

        q(   14 ) = (   0.0000000  -0.2500000   0.2500000 )
        q(   15 ) = (   0.2500000   0.0000000   0.2500000 )
        q(   16 ) = (  -0.2500000   0.0000000   0.2500000 )
        q(   17 ) = (   0.0000000   0.2500000   0.2500000 )
        q(   18 ) = (   0.2500000  -0.2500000   0.0000000 )
        q(   19 ) = (  -0.2500000   0.0000000  -0.2500000 )
        q(   20 ) = (   0.2500000   0.0000000  -0.2500000 )
        q(   21 ) = (   0.0000000  -0.2500000  -0.2500000 )
        q(   22 ) = (  -0.2500000  -0.2500000   0.0000000 )
        q(   23 ) = (  -0.2500000   0.2500000   0.0000000 )
        q(   24 ) = (   0.2500000   0.2500000   0.0000000 )
        q(   25 ) = (   0.0000000   0.2500000  -0.2500000 )


     ===================================================================
     irreducible q point #    4
     ===================================================================

     Symmetries of small group of q:  4

     Number of q in the star =   12
     List of q in the star:
          1   0.000000000  -0.375000000   0.375000000
          2   0.375000000   0.000000000   0.375000000
          3  -0.375000000   0.000000000   0.375000000
          4   0.000000000   0.375000000   0.375000000
          5   0.375000000  -0.375000000   0.000000000
          6  -0.375000000   0.000000000  -0.375000000
          7   0.375000000   0.000000000  -0.375000000
          8   0.000000000  -0.375000000  -0.375000000
          9  -0.375000000  -0.375000000   0.000000000
         10  -0.375000000   0.375000000   0.000000000
         11   0.375000000   0.375000000   0.000000000
         12   0.000000000   0.375000000  -0.375000000

        q(   26 ) = (   0.0000000  -0.3750000   0.3750000 )
        q(   27 ) = (   0.3750000   0.0000000   0.3750000 )
        q(   28 ) = (  -0.3750000   0.0000000   0.3750000 )
        q(   29 ) = (   0.0000000   0.3750000   0.3750000 )
        q(   30 ) = (   0.3750000  -0.3750000   0.0000000 )
        q(   31 ) = (  -0.3750000   0.0000000  -0.3750000 )
        q(   32 ) = (   0.3750000   0.0000000  -0.3750000 )
        q(   33 ) = (   0.0000000  -0.3750000  -0.3750000 )
        q(   34 ) = (  -0.3750000  -0.3750000   0.0000000 )
        q(   35 ) = (  -0.3750000   0.3750000   0.0000000 )
        q(   36 ) = (   0.3750000   0.3750000   0.0000000 )
        q(   37 ) = (   0.0000000   0.3750000  -0.3750000 )


     ===================================================================
     irreducible q point #    5
     ===================================================================

     Symmetries of small group of q:  8
          in addition sym. q -> -q+G:

     Number of q in the star =    6
     List of q in the star:
          1   0.000000000   0.500000000  -0.500000000
          2  -0.500000000   0.500000000   0.000000000
          3   0.500000000   0.000000000   0.500000000
          4   0.500000000   0.000000000  -0.500000000
          5   0.000000000   0.500000000   0.500000000
          6   0.500000000   0.500000000   0.000000000

        q(   38 ) = (   0.0000000   0.5000000  -0.5000000 )
        q(   39 ) = (  -0.5000000   0.5000000   0.0000000 )
        q(   40 ) = (   0.5000000   0.0000000   0.5000000 )
        q(   41 ) = (   0.5000000   0.0000000  -0.5000000 )
        q(   42 ) = (   0.0000000   0.5000000   0.5000000 )
        q(   43 ) = (   0.5000000   0.5000000   0.0000000 )


     ===================================================================
     irreducible q point #    6
     ===================================================================

     Symmetries of small group of q:  2

     Number of q in the star =   24
     List of q in the star:
          1  -0.125000000  -0.125000000   0.250000000
          2  -0.125000000  -0.250000000   0.125000000
          3   0.125000000  -0.250000000   0.125000000
          4  -0.125000000   0.125000000  -0.250000000
          5  -0.125000000   0.250000000  -0.125000000
          6   0.125000000   0.125000000  -0.250000000
          7   0.125000000   0.250000000  -0.125000000
          8   0.125000000  -0.250000000  -0.125000000
          9  -0.250000000   0.125000000  -0.125000000
         10   0.250000000   0.125000000   0.125000000
         11   0.125000000   0.125000000   0.250000000
         12  -0.250000000  -0.125000000   0.125000000
         13   0.250000000  -0.125000000  -0.125000000
         14   0.125000000  -0.125000000  -0.250000000
         15   0.125000000  -0.125000000   0.250000000
         16   0.125000000   0.250000000   0.125000000
         17  -0.125000000  -0.125000000  -0.250000000
         18  -0.125000000   0.125000000   0.250000000
         19  -0.125000000   0.250000000   0.125000000
         20  -0.125000000  -0.250000000  -0.125000000
         21   0.250000000   0.125000000  -0.125000000
         22  -0.250000000   0.125000000   0.125000000
         23   0.250000000  -0.125000000   0.125000000
         24  -0.250000000  -0.125000000  -0.125000000

        q(   44 ) = (  -0.1250000  -0.1250000   0.2500000 )
        q(   45 ) = (  -0.1250000  -0.2500000   0.1250000 )
        q(   46 ) = (   0.1250000  -0.2500000   0.1250000 )
        q(   47 ) = (  -0.1250000   0.1250000  -0.2500000 )
        q(   48 ) = (  -0.1250000   0.2500000  -0.1250000 )
        q(   49 ) = (   0.1250000   0.1250000  -0.2500000 )
        q(   50 ) = (   0.1250000   0.2500000  -0.1250000 )
        q(   51 ) = (   0.1250000  -0.2500000  -0.1250000 )
        q(   52 ) = (  -0.2500000   0.1250000  -0.1250000 )
        q(   53 ) = (   0.2500000   0.1250000   0.1250000 )
        q(   54 ) = (   0.1250000   0.1250000   0.2500000 )
        q(   55 ) = (  -0.2500000  -0.1250000   0.1250000 )
        q(   56 ) = (   0.2500000  -0.1250000  -0.1250000 )
        q(   57 ) = (   0.1250000  -0.1250000  -0.2500000 )
        q(   58 ) = (   0.1250000  -0.1250000   0.2500000 )
        q(   59 ) = (   0.1250000   0.2500000   0.1250000 )
        q(   60 ) = (  -0.1250000  -0.1250000  -0.2500000 )
        q(   61 ) = (  -0.1250000   0.1250000   0.2500000 )
        q(   62 ) = (  -0.1250000   0.2500000   0.1250000 )
        q(   63 ) = (  -0.1250000  -0.2500000  -0.1250000 )
        q(   64 ) = (   0.2500000   0.1250000  -0.1250000 )
        q(   65 ) = (  -0.2500000   0.1250000   0.1250000 )
        q(   66 ) = (   0.2500000  -0.1250000   0.1250000 )
        q(   67 ) = (  -0.2500000  -0.1250000  -0.1250000 )


     ===================================================================
     irreducible q point #    7
     ===================================================================

     Symmetries of small group of q:  1

     Number of q in the star =   48
     List of q in the star:
          1  -0.125000000  -0.250000000   0.375000000
          2  -0.250000000  -0.125000000   0.375000000
          3  -0.125000000  -0.375000000   0.250000000
          4   0.125000000  -0.375000000   0.250000000
          5  -0.125000000   0.250000000  -0.375000000
          6  -0.125000000   0.375000000  -0.250000000
          7   0.125000000   0.250000000  -0.375000000
          8   0.125000000   0.375000000  -0.250000000
          9   0.250000000  -0.375000000  -0.125000000
         10  -0.375000000   0.125000000  -0.250000000
         11   0.375000000   0.125000000   0.250000000
         12   0.250000000   0.125000000   0.375000000
         13  -0.375000000  -0.125000000   0.250000000
         14   0.375000000  -0.125000000  -0.250000000
         15   0.125000000  -0.250000000  -0.375000000
         16   0.250000000  -0.125000000  -0.375000000
         17  -0.250000000   0.125000000  -0.375000000
         18  -0.375000000  -0.250000000   0.125000000
         19  -0.375000000   0.250000000  -0.125000000
         20   0.375000000   0.250000000   0.125000000
         21   0.250000000  -0.125000000   0.375000000
         22  -0.250000000   0.375000000  -0.125000000
         23   0.125000000  -0.375000000  -0.250000000
         24   0.125000000   0.375000000   0.250000000
         25   0.250000000   0.125000000  -0.375000000
         26  -0.125000000  -0.250000000  -0.375000000
         27  -0.250000000   0.125000000   0.375000000
         28  -0.125000000   0.375000000   0.250000000
         29  -0.125000000   0.250000000   0.375000000
         30   0.125000000  -0.250000000   0.375000000
         31  -0.125000000  -0.375000000  -0.250000000
         32   0.125000000   0.250000000   0.375000000
         33   0.375000000  -0.250000000  -0.125000000
         34   0.250000000   0.375000000   0.125000000
         35  -0.250000000  -0.375000000   0.125000000
         36   0.375000000   0.250000000  -0.125000000
         37  -0.375000000   0.250000000   0.125000000
         38   0.375000000  -0.250000000   0.125000000
         39  -0.375000000  -0.250000000  -0.125000000
         40  -0.250000000  -0.125000000  -0.375000000
         41   0.250000000  -0.375000000   0.125000000
         42  -0.250000000  -0.375000000  -0.125000000
         43   0.250000000   0.375000000  -0.125000000
         44  -0.250000000   0.375000000   0.125000000
         45  -0.375000000   0.125000000   0.250000000
         46  -0.375000000  -0.125000000  -0.250000000
         47   0.375000000  -0.125000000   0.250000000
         48   0.375000000   0.125000000  -0.250000000

        q(   68 ) = (  -0.1250000  -0.2500000   0.3750000 )
        q(   69 ) = (  -0.2500000  -0.1250000   0.3750000 )
        q(   70 ) = (  -0.1250000  -0.3750000   0.2500000 )
        q(   71 ) = (   0.1250000  -0.3750000   0.2500000 )
        q(   72 ) = (  -0.1250000   0.2500000  -0.3750000 )
        q(   73 ) = (  -0.1250000   0.3750000  -0.2500000 )
        q(   74 ) = (   0.1250000   0.2500000  -0.3750000 )
        q(   75 ) = (   0.1250000   0.3750000  -0.2500000 )
        q(   76 ) = (   0.2500000  -0.3750000  -0.1250000 )
        q(   77 ) = (  -0.3750000   0.1250000  -0.2500000 )
        q(   78 ) = (   0.3750000   0.1250000   0.2500000 )
        q(   79 ) = (   0.2500000   0.1250000   0.3750000 )
        q(   80 ) = (  -0.3750000  -0.1250000   0.2500000 )
        q(   81 ) = (   0.3750000  -0.1250000  -0.2500000 )
        q(   82 ) = (   0.1250000  -0.2500000  -0.3750000 )
        q(   83 ) = (   0.2500000  -0.1250000  -0.3750000 )
        q(   84 ) = (  -0.2500000   0.1250000  -0.3750000 )
        q(   85 ) = (  -0.3750000  -0.2500000   0.1250000 )
        q(   86 ) = (  -0.3750000   0.2500000  -0.1250000 )
        q(   87 ) = (   0.3750000   0.2500000   0.1250000 )
        q(   88 ) = (   0.2500000  -0.1250000   0.3750000 )
        q(   89 ) = (  -0.2500000   0.3750000  -0.1250000 )
        q(   90 ) = (   0.1250000  -0.3750000  -0.2500000 )
        q(   91 ) = (   0.1250000   0.3750000   0.2500000 )
        q(   92 ) = (   0.2500000   0.1250000  -0.3750000 )
        q(   93 ) = (  -0.1250000  -0.2500000  -0.3750000 )
        q(   94 ) = (  -0.2500000   0.1250000   0.3750000 )
        q(   95 ) = (  -0.1250000   0.3750000   0.2500000 )
        q(   96 ) = (  -0.1250000   0.2500000   0.3750000 )
        q(   97 ) = (   0.1250000  -0.2500000   0.3750000 )
        q(   98 ) = (  -0.1250000  -0.3750000  -0.2500000 )
        q(   99 ) = (   0.1250000   0.2500000   0.3750000 )
        q(  100 ) = (   0.3750000  -0.2500000  -0.1250000 )
        q(  101 ) = (   0.2500000   0.3750000   0.1250000 )
        q(  102 ) = (  -0.2500000  -0.3750000   0.1250000 )
        q(  103 ) = (   0.3750000   0.2500000  -0.1250000 )
        q(  104 ) = (  -0.3750000   0.2500000   0.1250000 )
        q(  105 ) = (   0.3750000  -0.2500000   0.1250000 )
        q(  106 ) = (  -0.3750000  -0.2500000  -0.1250000 )
        q(  107 ) = (  -0.2500000  -0.1250000  -0.3750000 )
        q(  108 ) = (   0.2500000  -0.3750000   0.1250000 )
        q(  109 ) = (  -0.2500000  -0.3750000  -0.1250000 )
        q(  110 ) = (   0.2500000   0.3750000  -0.1250000 )
        q(  111 ) = (  -0.2500000   0.3750000   0.1250000 )
        q(  112 ) = (  -0.3750000   0.1250000   0.2500000 )
        q(  113 ) = (  -0.3750000  -0.1250000  -0.2500000 )
        q(  114 ) = (   0.3750000  -0.1250000   0.2500000 )
        q(  115 ) = (   0.3750000   0.1250000  -0.2500000 )


     ===================================================================
     irreducible q point #    8
     ===================================================================

     Symmetries of small group of q:  1

     Number of q in the star =   48
     List of q in the star:
          1  -0.125000000   0.625000000  -0.500000000
          2   0.625000000  -0.125000000  -0.500000000
          3  -0.125000000   0.500000000  -0.625000000
          4   0.125000000   0.500000000  -0.625000000
          5  -0.125000000  -0.625000000   0.500000000
          6  -0.125000000  -0.500000000   0.625000000
          7   0.125000000  -0.625000000   0.500000000
          8   0.125000000  -0.500000000   0.625000000
          9  -0.625000000   0.500000000  -0.125000000
         10   0.500000000   0.125000000   0.625000000
         11  -0.500000000   0.125000000  -0.625000000
         12  -0.625000000   0.125000000  -0.500000000
         13   0.500000000  -0.125000000  -0.625000000
         14  -0.500000000  -0.125000000   0.625000000
         15   0.125000000   0.625000000   0.500000000
         16  -0.625000000  -0.125000000   0.500000000
         17   0.625000000   0.125000000   0.500000000
         18   0.500000000   0.625000000   0.125000000
         19   0.500000000  -0.625000000  -0.125000000
         20  -0.500000000  -0.625000000   0.125000000
         21  -0.625000000  -0.125000000  -0.500000000
         22   0.625000000  -0.500000000  -0.125000000
         23   0.125000000   0.500000000   0.625000000
         24   0.125000000  -0.500000000  -0.625000000
         25  -0.625000000   0.125000000   0.500000000
         26  -0.125000000   0.625000000   0.500000000
         27   0.625000000   0.125000000  -0.500000000
         28  -0.125000000  -0.500000000  -0.625000000
         29  -0.125000000  -0.625000000  -0.500000000
         30   0.125000000   0.625000000  -0.500000000
         31  -0.125000000   0.500000000   0.625000000
         32   0.125000000  -0.625000000  -0.500000000
         33  -0.500000000   0.625000000  -0.125000000
         34  -0.625000000  -0.500000000   0.125000000
         35   0.625000000   0.500000000   0.125000000
         36  -0.500000000  -0.625000000  -0.125000000
         37   0.500000000  -0.625000000   0.125000000
         38  -0.500000000   0.625000000   0.125000000
         39   0.500000000   0.625000000  -0.125000000
         40   0.625000000  -0.125000000   0.500000000
         41  -0.625000000   0.500000000   0.125000000
         42   0.625000000   0.500000000  -0.125000000
         43  -0.625000000  -0.500000000  -0.125000000
         44   0.625000000  -0.500000000   0.125000000
         45   0.500000000   0.125000000  -0.625000000
         46   0.500000000  -0.125000000   0.625000000
         47  -0.500000000  -0.125000000  -0.625000000
         48  -0.500000000   0.125000000   0.625000000

        q(  116 ) = (  -0.1250000   0.6250000  -0.5000000 )
        q(  117 ) = (   0.6250000  -0.1250000  -0.5000000 )
        q(  118 ) = (  -0.1250000   0.5000000  -0.6250000 )
        q(  119 ) = (   0.1250000   0.5000000  -0.6250000 )
        q(  120 ) = (  -0.1250000  -0.6250000   0.5000000 )
        q(  121 ) = (  -0.1250000  -0.5000000   0.6250000 )
        q(  122 ) = (   0.1250000  -0.6250000   0.5000000 )
        q(  123 ) = (   0.1250000  -0.5000000   0.6250000 )
        q(  124 ) = (  -0.6250000   0.5000000  -0.1250000 )
        q(  125 ) = (   0.5000000   0.1250000   0.6250000 )
        q(  126 ) = (  -0.5000000   0.1250000  -0.6250000 )
        q(  127 ) = (  -0.6250000   0.1250000  -0.5000000 )
        q(  128 ) = (   0.5000000  -0.1250000  -0.6250000 )
        q(  129 ) = (  -0.5000000  -0.1250000   0.6250000 )
        q(  130 ) = (   0.1250000   0.6250000   0.5000000 )
        q(  131 ) = (  -0.6250000  -0.1250000   0.5000000 )
        q(  132 ) = (   0.6250000   0.1250000   0.5000000 )
        q(  133 ) = (   0.5000000   0.6250000   0.1250000 )
        q(  134 ) = (   0.5000000  -0.6250000  -0.1250000 )
        q(  135 ) = (  -0.5000000  -0.6250000   0.1250000 )
        q(  136 ) = (  -0.6250000  -0.1250000  -0.5000000 )
        q(  137 ) = (   0.6250000  -0.5000000  -0.1250000 )
        q(  138 ) = (   0.1250000   0.5000000   0.6250000 )
        q(  139 ) = (   0.1250000  -0.5000000  -0.6250000 )
        q(  140 ) = (  -0.6250000   0.1250000   0.5000000 )
        q(  141 ) = (  -0.1250000   0.6250000   0.5000000 )
        q(  142 ) = (   0.6250000   0.1250000  -0.5000000 )
        q(  143 ) = (  -0.1250000  -0.5000000  -0.6250000 )
        q(  144 ) = (  -0.1250000  -0.6250000  -0.5000000 )
        q(  145 ) = (   0.1250000   0.6250000  -0.5000000 )
        q(  146 ) = (  -0.1250000   0.5000000   0.6250000 )
        q(  147 ) = (   0.1250000  -0.6250000  -0.5000000 )
        q(  148 ) = (  -0.5000000   0.6250000  -0.1250000 )
        q(  149 ) = (  -0.6250000  -0.5000000   0.1250000 )
        q(  150 ) = (   0.6250000   0.5000000   0.1250000 )
        q(  151 ) = (  -0.5000000  -0.6250000  -0.1250000 )
        q(  152 ) = (   0.5000000  -0.6250000   0.1250000 )
        q(  153 ) = (  -0.5000000   0.6250000   0.1250000 )
        q(  154 ) = (   0.5000000   0.6250000  -0.1250000 )
        q(  155 ) = (   0.6250000  -0.1250000   0.5000000 )
        q(  156 ) = (  -0.6250000   0.5000000   0.1250000 )
        q(  157 ) = (   0.6250000   0.5000000  -0.1250000 )
        q(  158 ) = (  -0.6250000  -0.5000000  -0.1250000 )
        q(  159 ) = (   0.6250000  -0.5000000   0.1250000 )
        q(  160 ) = (   0.5000000   0.1250000  -0.6250000 )
        q(  161 ) = (   0.5000000  -0.1250000   0.6250000 )
        q(  162 ) = (  -0.5000000  -0.1250000  -0.6250000 )
        q(  163 ) = (  -0.5000000   0.1250000   0.6250000 )


     ===================================================================
     irreducible q point #    9
     ===================================================================

     Symmetries of small group of q:  2

     Number of q in the star =   24
     List of q in the star:
          1  -0.250000000   0.750000000  -0.500000000
          2  -0.250000000   0.500000000  -0.750000000
          3   0.250000000   0.500000000  -0.750000000
          4  -0.250000000  -0.750000000   0.500000000
          5  -0.250000000  -0.500000000   0.750000000
          6   0.250000000  -0.750000000   0.500000000
          7   0.250000000  -0.500000000   0.750000000
          8  -0.750000000   0.500000000  -0.250000000
          9   0.500000000   0.250000000   0.750000000
         10  -0.500000000   0.250000000  -0.750000000
         11  -0.750000000   0.250000000  -0.500000000
         12   0.500000000  -0.250000000  -0.750000000
         13  -0.500000000  -0.250000000   0.750000000
         14   0.250000000   0.750000000   0.500000000
         15  -0.750000000  -0.250000000  -0.500000000
         16   0.250000000  -0.500000000  -0.750000000
         17  -0.250000000   0.750000000   0.500000000
         18   0.750000000   0.250000000  -0.500000000
         19  -0.250000000  -0.500000000  -0.750000000
         20  -0.250000000   0.500000000   0.750000000
         21  -0.500000000  -0.750000000  -0.250000000
         22   0.500000000  -0.750000000   0.250000000
         23  -0.500000000   0.750000000   0.250000000
         24   0.500000000   0.750000000  -0.250000000

        q(  164 ) = (  -0.2500000   0.7500000  -0.5000000 )
        q(  165 ) = (  -0.2500000   0.5000000  -0.7500000 )
        q(  166 ) = (   0.2500000   0.5000000  -0.7500000 )
        q(  167 ) = (  -0.2500000  -0.7500000   0.5000000 )
        q(  168 ) = (  -0.2500000  -0.5000000   0.7500000 )
        q(  169 ) = (   0.2500000  -0.7500000   0.5000000 )
        q(  170 ) = (   0.2500000  -0.5000000   0.7500000 )
        q(  171 ) = (  -0.7500000   0.5000000  -0.2500000 )
        q(  172 ) = (   0.5000000   0.2500000   0.7500000 )
        q(  173 ) = (  -0.5000000   0.2500000  -0.7500000 )
        q(  174 ) = (  -0.7500000   0.2500000  -0.5000000 )
        q(  175 ) = (   0.5000000  -0.2500000  -0.7500000 )
        q(  176 ) = (  -0.5000000  -0.2500000   0.7500000 )
        q(  177 ) = (   0.2500000   0.7500000   0.5000000 )
        q(  178 ) = (  -0.7500000  -0.2500000  -0.5000000 )
        q(  179 ) = (   0.2500000  -0.5000000  -0.7500000 )
        q(  180 ) = (  -0.2500000   0.7500000   0.5000000 )
        q(  181 ) = (   0.7500000   0.2500000  -0.5000000 )
        q(  182 ) = (  -0.2500000  -0.5000000  -0.7500000 )
        q(  183 ) = (  -0.2500000   0.5000000   0.7500000 )
        q(  184 ) = (  -0.5000000  -0.7500000  -0.2500000 )
        q(  185 ) = (   0.5000000  -0.7500000   0.2500000 )
        q(  186 ) = (  -0.5000000   0.7500000   0.2500000 )
        q(  187 ) = (   0.5000000   0.7500000  -0.2500000 )


     ===================================================================
     irreducible q point #   10
     ===================================================================

     Symmetries of small group of q:  2

     Number of q in the star =   24
     List of q in the star:
          1  -0.250000000   0.625000000  -0.375000000
          2  -0.250000000   0.375000000  -0.625000000
          3   0.250000000   0.375000000  -0.625000000
          4   0.625000000  -0.250000000  -0.375000000
          5   0.250000000  -0.375000000   0.625000000
          6  -0.625000000   0.375000000  -0.250000000
          7   0.375000000   0.250000000   0.625000000
          8  -0.375000000   0.250000000  -0.625000000
          9   0.375000000  -0.250000000  -0.625000000
         10   0.250000000   0.625000000   0.375000000
         11   0.375000000   0.625000000   0.250000000
         12  -0.375000000  -0.625000000   0.250000000
         13  -0.625000000  -0.250000000  -0.375000000
         14   0.625000000  -0.375000000  -0.250000000
         15   0.250000000   0.375000000   0.625000000
         16  -0.625000000   0.250000000   0.375000000
         17  -0.250000000   0.625000000   0.375000000
         18   0.625000000   0.250000000  -0.375000000
         19  -0.250000000  -0.625000000  -0.375000000
         20  -0.375000000  -0.625000000  -0.250000000
         21   0.375000000  -0.625000000   0.250000000
         22  -0.375000000   0.625000000   0.250000000
         23   0.375000000   0.625000000  -0.250000000
         24   0.625000000  -0.250000000   0.375000000

        q(  188 ) = (  -0.2500000   0.6250000  -0.3750000 )
        q(  189 ) = (  -0.2500000   0.3750000  -0.6250000 )
        q(  190 ) = (   0.2500000   0.3750000  -0.6250000 )
        q(  191 ) = (   0.6250000  -0.2500000  -0.3750000 )
        q(  192 ) = (   0.2500000  -0.3750000   0.6250000 )
        q(  193 ) = (  -0.6250000   0.3750000  -0.2500000 )
        q(  194 ) = (   0.3750000   0.2500000   0.6250000 )
        q(  195 ) = (  -0.3750000   0.2500000  -0.6250000 )
        q(  196 ) = (   0.3750000  -0.2500000  -0.6250000 )
        q(  197 ) = (   0.2500000   0.6250000   0.3750000 )
        q(  198 ) = (   0.3750000   0.6250000   0.2500000 )
        q(  199 ) = (  -0.3750000  -0.6250000   0.2500000 )
        q(  200 ) = (  -0.6250000  -0.2500000  -0.3750000 )
        q(  201 ) = (   0.6250000  -0.3750000  -0.2500000 )
        q(  202 ) = (   0.2500000   0.3750000   0.6250000 )
        q(  203 ) = (  -0.6250000   0.2500000   0.3750000 )
        q(  204 ) = (  -0.2500000   0.6250000   0.3750000 )
        q(  205 ) = (   0.6250000   0.2500000  -0.3750000 )
        q(  206 ) = (  -0.2500000  -0.6250000  -0.3750000 )
        q(  207 ) = (  -0.3750000  -0.6250000  -0.2500000 )
        q(  208 ) = (   0.3750000  -0.6250000   0.2500000 )
        q(  209 ) = (  -0.3750000   0.6250000   0.2500000 )
        q(  210 ) = (   0.3750000   0.6250000  -0.2500000 )
        q(  211 ) = (   0.6250000  -0.2500000   0.3750000 )


     ===================================================================
     irreducible q point #   11
     ===================================================================

     Symmetries of small group of q:  8

     Number of q in the star =    6
     List of q in the star:
          1   0.000000000   0.000000000   0.250000000
          2   0.000000000  -0.250000000   0.000000000
          3  -0.250000000   0.000000000   0.000000000
          4   0.250000000   0.000000000   0.000000000
          5   0.000000000   0.000000000  -0.250000000
          6   0.000000000   0.250000000   0.000000000

        q(  212 ) = (   0.0000000   0.0000000   0.2500000 )
        q(  213 ) = (   0.0000000  -0.2500000   0.0000000 )
        q(  214 ) = (  -0.2500000   0.0000000   0.0000000 )
        q(  215 ) = (   0.2500000   0.0000000   0.0000000 )
        q(  216 ) = (   0.0000000   0.0000000  -0.2500000 )
        q(  217 ) = (   0.0000000   0.2500000   0.0000000 )


[...]
     3896        4      8.0575    126.6783    324.0355      0.2886      2.4646
     3897        4      7.3153     90.9413    297.2944     24.0644     -0.9584
     3898        4      7.0130    273.9765    508.1345    -31.5961     -1.0316
     3899        4      7.0353    -46.0513    197.2443      0.5645      0.7715
     3900        4      7.1696    279.8249    382.7283     -0.7948     -2.2581
     3901        4      7.4862     52.2245    232.5002     10.8564     -0.9079
     3902        4      8.0938      9.0588    143.2798      0.1600      5.2514
     3903        4      9.3284    338.8860    299.6960      0.3207      2.1177
     3904        4     11.1919    558.6123    283.8820     -2.2042     -1.4537
     3905        4     11.0724    388.5039    107.3648      0.6744      0.4828
     3906        4     11.2034    324.9126     41.5689      0.6564      0.5236
     3907        4     10.8719    242.6202    118.4278      4.1012     -0.7562
     3908        4     10.8697    102.7042    129.5530      0.4947      1.0215
     3909        4     11.3857    311.1981    312.5535     -0.3081     -4.2455
     3910        4     11.0618    488.0104    112.3724      0.4833      1.0693
     3911        4     10.4806    682.6591    477.3903     -0.4309     -3.3205
     3912        4      8.7206    189.8122    252.1892      5.0301     -0.8012
     3913        4      7.3622     64.6053    395.4036     -0.5416     -2.8465
     3914        4      6.4503   -211.6100    457.4669     -2.2795     -1.4387
     3915        4      6.0440   -195.1639    390.0467      0.4099      1.4397
     3916        4      6.0794   -187.1936    453.7692     -0.7356     -2.3594
     3917        4      6.4514     -3.9211    294.3709      0.8695      0.1501
     3918        4      7.3363     85.2559    134.7910      0.3007      2.3258
     3919        4      8.7882    122.3609    145.1973      0.3932      1.5435
     3920        4     10.5138    345.1627    217.3700      0.3693      1.7081
     3921        4     10.4225    534.4704    329.6625     -0.8828     -2.1328
     3922        4     10.4997    202.0553    354.7519     -0.6780     -2.4749
     3923        4     10.1183     37.5503    465.4007     -1.3779     -1.7258
     3924        4      9.6453    104.1694    216.2398      0.2447      3.0865
     3925        4     10.1425    307.0271    261.6066      0.2167      3.6152
     3926        4     10.3897    261.3178     13.0435      0.2859      2.4980
     3927        4     10.3054   1042.9921   2186.6837     -0.0295    -34.8671
     3928        4      9.8799    476.9259    253.6969      0.4125      1.4242
     3929        4      8.2816    335.0296    355.9416      1.6648     -0.3993
     3930        4      6.9763    210.9330    640.4311      2.0497     -0.5121
     3931        4      6.0543   -162.1806    418.7664      1.0233     -0.0227
     3932        4      5.7651    261.9017     38.1933      0.3747      1.6689
     3933        4      6.0934    -89.6096    544.2362      3.0027     -0.6670
     3934        4      6.9990     21.7538    703.7636     -0.2944     -4.3964
     3935        4      8.3480    179.6883    171.1712      0.2461      3.0639
     3936        4     10.0605    303.0084    109.9400      0.4801      1.0827
     3937        4     10.1095    226.7137    277.1873      0.4926      1.0299
     3938        4     10.1963    328.6289    225.7159     -1.5800     -1.6329
     3939        4      9.4883    282.1780    183.6426      0.2941      2.4000
     3940        4      8.6139     65.5764    299.3366     -4.8074     -1.2080
     3941        4      8.6919    156.1209    187.4788      0.4676      1.1386
     3942        4      9.5429    288.6289    171.1530      0.3651      1.7388
     3943        4     10.2799    375.1662    265.2492      1.0587     -0.0554
     3944        4     10.2163    392.6410    266.4366      0.4002      1.4985
     3945        4      9.6396    414.7667    262.3268      0.3558      1.8108
     3946        4      8.2231    199.7724    592.4890     -0.1189     -9.4135
     3947        4      6.9834     58.9281    113.0495      0.5319      0.8801
     3948        4      6.1658   -164.4877    600.7540     -0.3988     -3.5073
     3949        4      6.1267    -54.9689    307.5827      0.2704      2.6982
     3950        4      6.9684     73.6032     82.3066      0.2482      3.0297
     3951        4      8.1776    127.5448    343.0249     -1.1889     -1.8411
     3952        4      9.6087    174.5522   1671.5828     -0.0291    -35.3681
     3953        4      9.9263    581.2574   1095.9816     -0.0668    -15.9636
     3954        4     10.0061    412.7731     82.7105      0.3837      1.6059
     3955        4      9.2484    343.6797    391.9660     -0.4870     -3.0534
     3956        4      8.1612   -165.4326   1375.6613     -0.0929    -11.7624
     3957        4      7.5173     67.0802    422.3352      0.9997      0.0003
     3958        4      8.1805    436.4161   1055.5731     -0.2181     -5.5842
     3959        4      9.4422    295.4391    507.7378     -0.5571     -2.7949
     3960        4     10.1473    415.6453     75.2911      0.5215      0.9177
     3961        4     10.0012    333.8311     44.5284      0.2226      3.4920
     3962        4      9.6175     23.7514    405.5617     -2.3143     -1.4321
     3963        4      8.2415    162.7423    409.5262    -24.7537     -1.0404
     3964        4      7.1015    374.2490    395.3132      0.2135      3.6829
     3965        4      6.4840     13.7516    525.1790     -1.3961     -1.7163
     3966        4      7.0572    419.5009    497.5026      0.1948      4.1342
     3967        4      8.1654    193.9954    337.6401      0.5176      0.9320
     3968        4      9.4606     31.9331    152.7786      0.3674      1.7216
     3969        4      9.8857    -59.7116    137.8234      0.2046      3.8873
     3970        4      9.6086    293.5901   1606.7388     -0.0285    -36.0452
     3971        4      9.0134    174.7622    341.7482     -0.5303     -2.8858
     3972        4      8.0668     80.3841   1525.8990     -0.0514    -20.4402
     3973        4      7.1053     17.6161    282.7994      0.3239      2.0875
     3974        4      7.0141    -43.3857    400.8514     -0.9794     -2.0210
     3975        4      8.0923    697.6888   1721.4869     -0.0472    -22.1720
     3976        4      9.1102    407.2290     60.6962      0.2039      3.9055
     3977        4      9.6019    540.9954    249.6597      0.1426      6.0126
     3978        4      9.9810    502.1177    173.5739      0.1700      4.8827
     3979        4      9.5462   -126.8621    598.7705    -13.8272     -1.0723
     3980        4      8.3564    194.9782    150.6229      1.9326     -0.4826
     3981        4      7.3553     34.9824    337.4397     -5.1808     -1.1930
     3982        4      7.3821    113.4051    305.3315     -2.2984     -1.4351
     3983        4      8.3143    159.5229    283.4379      1.8530     -0.4603
     3984        4      9.4263     82.4325    283.9719     -1.3012     -1.7685
     3985        4     10.0517    308.6344     81.1658      0.2609      2.8333
     3986        4      9.5684    311.0378    308.1669      0.9715      0.0293
     3987        4      8.8234    268.2250    509.2590     -0.2673     -4.7416
     3988        4      7.9694    104.5709    431.2592      0.1567      5.3828
     3989        4      6.9156    113.2814    111.8780      0.1731      4.7787
     3990        4      6.3482  -1120.9626   1167.0278      0.2432      3.1125
     3991        4      6.8346    290.5707    409.7407      0.3730      1.6810
     3992        4      7.9967   -124.3625   1538.4393     -0.0629    -16.9097
     3993        4      8.8923    423.3592    301.7162      3.2612     -0.6934
     3994        4      9.7690    914.0456    816.4072      0.2922      2.4218
     3995        4     10.2489    264.6654    262.4923      0.3088      2.2384
     3996        4      9.7471   -228.6193    916.7471      0.6667      0.4999
     3997        4      8.8140    308.5314    631.4857     -0.8524     -2.1731
     3998        4      8.0085   -283.5008   1087.0614     -0.1997     -6.0075
     3999        4      8.7932   -280.8547    618.8150      0.6418      0.5580
     4000        4      9.7919    159.0379    237.0532      0.2185      3.5767
     4001        4     10.4579    483.7512    211.9456      0.5256      0.9027
     4002        4     10.1419    254.5782    105.3417      0.3488      1.8672
     4003        4      9.2731    264.2549    114.5144      0.3479      1.8747
     4004        4      8.0345   -238.6719    223.9200      0.0833     11.0070
     4005        4      6.8394    223.5880    334.6173      0.3721      1.6874
     4006        4      6.1460   -190.9930    434.9267      0.2636      2.7930
     4007        4      6.1831   -285.7536   2056.5859     -0.0348    -29.7190
     4008        4      6.8725    189.9158    476.3777     -3.8016     -1.2630
     4009        4      8.0155    183.0961    368.1736      0.2420      3.1325
     4010        4      9.1990    240.3398    101.2324      0.3394      1.9462
     4011        4     10.2239    230.2140    233.8680      0.3891      1.5697
     4012        4     10.4561    554.3359    474.8178     -0.5457     -2.8324
     4013        4     10.5024    318.5232    101.1177      0.1318      6.5901
     4014        4      9.3472     99.8552    135.8362      0.3240      2.0864
     4015        4      9.3638     86.4159    127.0012      0.2949      2.3912
     4016        4     10.4101    191.1835    252.8068     -3.4617     -1.2889
     4017        4     11.0217    369.6333    169.1892      3.1352     -0.6810
     4018        4     10.9002    235.8684     36.1471      0.2396      3.1734
     4019        4      9.7875    434.6656    104.9324      0.3865      1.5872
     4020        4      8.2676     80.0677    811.4761      0.6825      0.4653
     4021        4      7.0077    -77.0556    304.8900      0.2421      3.1305
     4022        4      6.3510   -812.1225    975.3384     -0.3137     -4.1875
     4023        4      6.2718   -179.9274    404.7661      0.3156      2.1683
     4024        4      6.5026    440.1591   3158.1291     -0.0214    -47.7653
     4025        4      7.0904    177.5514    758.1118     -0.2464     -5.0591
     4026        4      8.1746     -2.4570    497.1783      3.5310     -0.7168
     4027        4      9.6091    457.9636    311.2130     -2.0725     -1.4825
     4028        4     10.6481    631.6078    285.9333      0.5488      0.8223
     4029        4     10.9125    532.5258     46.6837      0.2392      3.1804
     4030        4     10.9254     98.9322    126.9486      0.3081      2.2453
     4031        4     10.2377    127.0831    216.0089      0.2900      2.4484
     4032        4     10.9597    243.1068    343.0640     -1.7837     -1.5606
     4033        4     11.5064    343.2674     55.1328      0.4346      1.3012
     4034        4     11.3965    281.1901    108.7446      2.7038     -0.6301
     4035        4     10.1717    289.7868    226.0784      0.3099      2.2265
     4036        4      8.6402     31.1876    320.7808      0.5024      0.9905
     4037        4      7.6619   -133.1263    453.9041     -1.6420     -1.6090
     4038        4      7.1440    114.7436    296.5673      0.1350      6.4101
     4039        4      6.8952    120.0068    269.8958      0.3857      1.5929
     4040        4      6.8712    184.0417    501.5011     -0.5703     -2.7536
     4041        4      7.1683    193.5664    527.0690      1.4389     -0.3050
     4042        4      7.6815   -211.0386    306.2816      0.6280      0.5923
     4043        4      8.6536    260.0320    297.0159      0.3155      2.1697
     4044        4     10.2465     88.3341    317.8424      0.3990      1.5063
     4045        4     11.3891    285.7728    188.6363     -1.6131     -1.6199
     4046        4     11.7885    589.4652     53.3555      0.2666      2.7514
     4047        4     11.6939    472.1455    437.8777      2.0059     -0.5015
     4048        4     11.7084    223.2751     81.5698      0.2103      3.7560
     4049        4     12.1019    371.0577      0.8293      0.4464      1.2402
     4050        4     11.7680    358.6605     56.2185      0.3834      1.6084
     4051        4     10.7149    224.1395    360.7014     -0.2779     -4.5985
     4052        4      9.3757   -113.9763     68.2038      0.2353      3.2502
     4053        4      8.7573    316.0682    311.9983      0.7912      0.2640
     4054        4      8.3280    336.5465   1141.0595     -0.0743    -14.4552
     4055        4      7.9891    -45.0189    325.3762      0.3674      1.7220
     4056        4      7.8194   -245.5137   1465.8235     -0.0826    -13.1122
     4057        4      7.9480    145.8268    253.1034      0.3737      1.6759
     4058        4      8.2826    184.3891    535.5083      0.4990      1.0039
     4059        4      8.6396   -209.6261    378.0131      0.3726      1.6837
     4060        4      9.4068   -122.8044     94.1605      0.2285      3.3771
     4061        4     10.8064    -34.1684    534.2418     -0.2612     -4.8289
     4062        4     12.0667    222.7046    129.3258      0.4163      1.4019
     4063        4     12.7680    258.7948    370.4270      1.5594     -0.3587
     4064        4     12.8198    425.2465      0.0000      0.4707      1.1243
     4065        4     13.5466    222.5970     21.4997      0.4709      1.1236
     4066        4     12.8328    341.9048     52.6720      0.9787      0.0217
     4067        4     11.7514    284.2396    191.1117      2.7489     -0.6362
     4068        4     10.8497     -9.2309     93.3685      0.2047      3.8858
     4069        4     10.1649    -32.2518    235.8433      0.3207      2.1187
     4070        4      9.6357    288.9757    216.3515      0.7493      0.3345
     4071        4      9.1475    225.0655    156.1010      0.6152      0.6254
     4072        4      8.9115    261.1824    131.6360      0.5424      0.8436
     4073        4      8.9483    282.4278    200.1439      1.4522     -0.3114
     4074        4      9.2512    198.3136    113.2608      0.2863      2.4928
     4075        4      9.6464    338.8572    426.2979     -0.1995     -6.0131
     4076        4     10.0875    289.8080    237.9940      4.7187     -0.7881
     4077        4     10.6992    325.2314    320.2465     -0.2699     -4.7051
     4078        4     11.5458    183.4083     32.9895      0.3794      1.6357
     4079        4     13.1370    327.1651     58.5994      0.7093      0.4098
     4080        4     13.7519    626.5366    212.3967      1.0040     -0.0039
     4081        4     14.1237    722.8786      5.5400      0.2973      2.3636
     4082        4     13.9813    564.9658      0.0000      0.3973      1.5169
     4083        4     13.1865    101.5808    296.9853      1.2823     -0.2202
     4084        4     12.1740    181.8616   1762.5131     -0.0530    -19.8509
     4085        4     11.3009    292.4763     94.5499      0.3229      2.0970
     4086        4     10.6190    382.7037    233.3717      3.7447     -0.7330
     4087        4     10.2727    278.2169    190.1837      0.5019      0.9926
     4088        4      9.9317    741.4758    353.3554      1.8142     -0.4488
     4089        4      9.6886    975.8487    156.6720      0.0898     10.1409
     4090        4      9.8891    278.8752    594.0421     -0.1893     -6.2820
     4091        4     10.3985    412.2452    487.7027     -0.2786     -4.5892
     4092        4     10.8498    352.9544     16.9326      0.2546      2.9275
     4093        4     11.4283    463.7661     36.3716      0.3109      2.2163
     4094        4     12.2483    492.5283    282.0238      0.3280      2.0489
     4095        4     13.2864    426.9127      1.4601      0.2896      2.4533
     4096        4     14.2951    463.6344    147.8800     -1.4070     -1.7107
  
                  Fermi level (eV) =    0.904997200627338D+00
     DOS(states/spin/eV/Unit Cell) =    0.400315417375667D+00
            Electron smearing (eV) =    0.200000000000000D-01
                 Fermi window (eV) =    0.600000000000000D+01
      
     Finished writing .ephmat files
     ===================================================================
     Memory usage:  VmHWM =       195Mb
                   VmPeak =       445Mb
     ===================================================================


     ===================================================================
     Eliashberg Spectral Function in the Migdal Approximation
     ===================================================================

     lambda :    0.6849604
     lambda_tr :    0.8696701
 
     Estimated Allen-Dynes Tc
 
     logavg =    0.0004649 l_a2F =    0.7684721
     mu =   0.10 Tc =         3.161974736406 K
     mu =   0.12 Tc =         2.727131567337 K
     mu =   0.14 Tc =         2.315789140436 K
     mu =   0.16 Tc =         1.931136106097 K
     mu =   0.18 Tc =         1.576374003701 K
     mu =   0.20 Tc =         1.254593784068 K
     a2F          :      0.37s CPU      0.38s WALL (       1 calls)

     ===================================================================
     Calculate Eliashberg spectral function
     ===================================================================


     Finish reading .freq file 

                  Fermi level (eV) =     9.0499720063E-01
     DOS(states/spin/eV/Unit Cell) =     4.0031541738E-01
            Electron smearing (eV) =     2.0000000000E-02
                 Fermi window (eV) =     6.0000000000E+00
     Nr k-points within the Fermi shell =      4096 out of      4096
           3 bands within the Fermi window


     Finish reading .egnv file 


     Max nr of q-points =       512


     Finish reading .ikmap files


     Start reading .ephmat files


     Finish reading .ephmat files 

     lambda_max =           487.9136338   lambda_k_max =            43.1549245
 
     Electron-phonon coupling strength =    1.3330476
 
     Estimated Allen-Dynes Tc =       7.1551399 K for muc =    0.21000
  
     Estimated BCS superconducting gap =       0.0010852 eV

     Unfolding on the coarse grid
     elphon_wrap  :   5587.26s CPU   5992.32s WALL (       1 calls)

     INITIALIZATION: 

     init_vloc    :      0.00s CPU      0.01s WALL (       1 calls)
     init_us_1    :      0.03s CPU      0.03s WALL (       1 calls)


     Electron-Phonon interpolation
     ephwann      :    474.54s CPU    582.28s WALL (       1 calls)
     ep-interp    :    354.48s CPU    399.25s WALL (     512 calls)
     PH SELF-ENER :      0.78s CPU      0.78s WALL (     512 calls)

     Ham: step 1  :      0.00s CPU      0.00s WALL (       1 calls)
     Ham: step 2  :      0.05s CPU      0.09s WALL (       1 calls)
     ep: step 1   :      0.08s CPU      0.17s WALL (    1536 calls)
     ep: step 2   :     18.55s CPU     30.07s WALL (    1536 calls)
     DynW2B       :      0.01s CPU      0.04s WALL (     512 calls)
     HamW2B       :     60.56s CPU     60.87s WALL (  700758 calls)
     ephW2Bp      :     24.64s CPU     49.83s WALL (     512 calls)

     ELIASHBERG   :    703.12s CPU    823.25s WALL (       1 calls)

     Total program execution
     EPW          :      1h54m CPU      2h 5m WALL

                                                                                          
 Please consider citing:                                                                  
 S. Ponce, E. R. Margine, C. Verdi and F. Giustino, Comput. Phys. Commun. 209, 116 (2016) 
                                                                                          
 In addition, if you used anisotropic Eliashberg superconductivity please cite:           
              E. R. Margine and F. Giustino, Phys. Rev. B 87, 024505 (2013)               
              if you used transport properties (scattering rates, mobility) please cite:  
              S. Ponce, E. R. Margine and F. Giustino, Phys. Rev. B 97, 121201 (2018)     
