                                                                                      
                                       ``:oss/                                        
                           `.+s+.     .+ys--yh+     `./ss+.                           
                          -sh//yy+`   +yy   +yy    -+h+-oyy                           
                          -yh- .oyy/.-sh.   .syo-.:sy-  /yh                           
                 `.-.`    `yh+   -oyyyo.     `/syys:    oys      `.`                  
               `/+ssys+-` `sh+      `                   oys`   .:osyo`                
               -yh- ./syyooyo`                          .sys+/oyo--yh/                
               `yy+    .-:-.                             `-/+/:`  -sh-                
                /yh.                                              oys                 
          ``..---hho---------`   .---------..`      `.-----.`    -hd+---.             
       `./osmNMMMMMMMMMMMMMMMs. +NNMMMMMMMMNNmh+.   yNMMMMMNm-  oNMMMMMNmo++:`        
       +sy--/sdMMMhyyyyyyyNMMh- .oyNMMmyyyyyhNMMm+` -yMMMdyyo:` .oyyNMMNhs+syy`       
       -yy/   /MMM+.`-+/``mMMy-   `mMMh:`````.dMMN:` `MMMy-`-dhhy```mMMy:``+hs        
        -yy+` /MMMo:-mMM+`-oo/.    mMMh:     `dMMN/`  dMMm:`dMMMMy..MMMo-.+yo`        
         .sys`/MMMMNNMMMs-         mMMmyooooymMMNo:   oMMM/sMMMMMM++MMN//oh:          
          `sh+/MMMhyyMMMs- `-`     mMMMMMMMMMNmy+-`   -MMMhMMMsmMMmdMMd/yy+           
    `-/+++oyy-/MMM+.`/hh/.`mNm:`   mMMd+/////:-.`      NMMMMMd/:NMMMMMy:/yyo/:.`      
   +os+//:-..-oMMMo:--:::-/MMMo. .-mMMd+---`           hMMMMN+. oMMMMMo. `-+osyso:`   
   syo     `mNMMMMMNNNNNNNNMMMo.oNNMMMMMNNNN:`         +MMMMs:`  dMMMN/`     ``:syo   
   /yh`     :syyyyyyyyyyyyyyyy+.`+syyyyyyyyo:`         .oyys:`   .oyys:`        +yh   
   -yh-        ````````````````    `````````              ``        ``          oys   
   -+h/------------------------::::::::://////++++++++++++++++++++++///////::::/yd:   
   shdddddddddddddddddddddddddddddhhhhhhhhyyyyyssssssssssssssssyyyyyyyhhhhhhhddddh`   
                                                                                      
  S. Ponce, E. R. Margine, C. Verdi, and F. Giustino,                                 
                                                Comput. Phys. Commun. 209, 116 (2016) 
                                                                                      

     Program EPW v.5.1.0 starts on 12Apr2019 at  8:42:43 

     This program is part of the open-source Quantum ESPRESSO suite
     for quantum simulation of materials; please cite
         "P. Giannozzi et al., J. Phys.:Condens. Matter 21 395502 (2009);
         "P. Giannozzi et al., J. Phys.:Condens. Matter 29 465901 (2017);
          URL http://www.quantum-espresso.org", 
     in publications or presentations arising from this work. More details at
     http://www.quantum-espresso.org/quote

     Parallel version (MPI), running on     6 processors

     MPI processes distributed on     2 nodes
     K-points division:     npool     =       6

     Reading data from directory:
     ./Li.save/

     IMPORTANT: XC functional enforced from input :
     Exchange-correlation      = PBE ( 1  4  3  4 0 0)
     Any further DFT definition will be discarded
     Please, verify this is what you really want


     G-vector sticks info
     --------------------
     sticks:   dense  smooth     PW     G-vecs:    dense   smooth      PW
     Sum        1151    1151    411                24643    24643    5233


                                                                                

     bravais-lattice index     =            3
     lattice parameter (a_0)   =       6.5235  a.u.
     unit-cell volume          =     138.8072 (a.u.)^3
     number of atoms/cell      =            1
     number of atomic types    =            1
     kinetic-energy cut-off    =     120.0000  Ry
     charge density cut-off    =     480.0000  Ry
     Exchange-correlation      = PBE ( 1  4  3  4 0 0)


     celldm(1)=    6.52350  celldm(2)=    0.00000  celldm(3)=    0.00000
     celldm(4)=    0.00000  celldm(5)=    0.00000  celldm(6)=    0.00000

     crystal axes: (cart. coord. in units of a_0)
               a(1) = (  0.5000  0.5000  0.5000 )  
               a(2) = ( -0.5000  0.5000  0.5000 )  
               a(3) = ( -0.5000 -0.5000  0.5000 )  

     reciprocal axes: (cart. coord. in units 2 pi/a_0)
               b(1) = (  1.0000  0.0000  1.0000 )  
               b(2) = ( -1.0000  1.0000  0.0000 )  
               b(3) = (  0.0000 -1.0000  1.0000 )  


     Atoms inside the unit cell: 

   Cartesian axes

     site n.  atom      mass           positions (a_0 units)
        1        Li   6.9410   tau( 1) = (    0.00000    0.00000    0.00000  )

     49 Sym.Ops. (with q -> -q+G )


     G cutoff =  517.4196  (  24643 G-vectors)     FFT grid: ( 40, 40, 40)
     number of k points=  512  gaussian broad. (Ry)=  0.0250     ngauss =  -1
                       cart. coord. in units 2pi/a_0
        k(    1) = (   0.0000000   0.0000000   0.0000000), wk =   0.0039062
        k(    2) = (   0.0000000  -0.1250000   0.1250000), wk =   0.0039062
        k(    3) = (   0.0000000  -0.2500000   0.2500000), wk =   0.0039062
        k(    4) = (   0.0000000  -0.3750000   0.3750000), wk =   0.0039062
        k(    5) = (   0.0000000  -0.5000000   0.5000000), wk =   0.0039062
        k(    6) = (   0.0000000  -0.6250000   0.6250000), wk =   0.0039062
        k(    7) = (   0.0000000  -0.7500000   0.7500000), wk =   0.0039062
        k(    8) = (   0.0000000  -0.8750000   0.8750000), wk =   0.0039062
        k(    9) = (  -0.1250000   0.1250000   0.0000000), wk =   0.0039062
        k(   10) = (  -0.1250000   0.0000000   0.1250000), wk =   0.0039062
        k(   11) = (  -0.1250000  -0.1250000   0.2500000), wk =   0.0039062
        k(   12) = (  -0.1250000  -0.2500000   0.3750000), wk =   0.0039062
        k(   13) = (  -0.1250000  -0.3750000   0.5000000), wk =   0.0039062
        k(   14) = (  -0.1250000  -0.5000000   0.6250000), wk =   0.0039062
        k(   15) = (  -0.1250000  -0.6250000   0.7500000), wk =   0.0039062
        k(   16) = (  -0.1250000  -0.7500000   0.8750000), wk =   0.0039062
        k(   17) = (  -0.2500000   0.2500000   0.0000000), wk =   0.0039062
        k(   18) = (  -0.2500000   0.1250000   0.1250000), wk =   0.0039062
        k(   19) = (  -0.2500000   0.0000000   0.2500000), wk =   0.0039062
        k(   20) = (  -0.2500000  -0.1250000   0.3750000), wk =   0.0039062
        k(   21) = (  -0.2500000  -0.2500000   0.5000000), wk =   0.0039062
        k(   22) = (  -0.2500000  -0.3750000   0.6250000), wk =   0.0039062
        k(   23) = (  -0.2500000  -0.5000000   0.7500000), wk =   0.0039062
        k(   24) = (  -0.2500000  -0.6250000   0.8750000), wk =   0.0039062
        k(   25) = (  -0.3750000   0.3750000   0.0000000), wk =   0.0039062
        k(   26) = (  -0.3750000   0.2500000   0.1250000), wk =   0.0039062
        k(   27) = (  -0.3750000   0.1250000   0.2500000), wk =   0.0039062
        k(   28) = (  -0.3750000   0.0000000   0.3750000), wk =   0.0039062
        k(   29) = (  -0.3750000  -0.1250000   0.5000000), wk =   0.0039062
        k(   30) = (  -0.3750000  -0.2500000   0.6250000), wk =   0.0039062
        k(   31) = (  -0.3750000  -0.3750000   0.7500000), wk =   0.0039062
        k(   32) = (  -0.3750000  -0.5000000   0.8750000), wk =   0.0039062
        k(   33) = (  -0.5000000   0.5000000   0.0000000), wk =   0.0039062
        k(   34) = (  -0.5000000   0.3750000   0.1250000), wk =   0.0039062
        k(   35) = (  -0.5000000   0.2500000   0.2500000), wk =   0.0039062
        k(   36) = (  -0.5000000   0.1250000   0.3750000), wk =   0.0039062
        k(   37) = (  -0.5000000   0.0000000   0.5000000), wk =   0.0039062
        k(   38) = (  -0.5000000  -0.1250000   0.6250000), wk =   0.0039062
        k(   39) = (  -0.5000000  -0.2500000   0.7500000), wk =   0.0039062
        k(   40) = (  -0.5000000  -0.3750000   0.8750000), wk =   0.0039062
        k(   41) = (  -0.6250000   0.6250000   0.0000000), wk =   0.0039062
        k(   42) = (  -0.6250000   0.5000000   0.1250000), wk =   0.0039062
        k(   43) = (  -0.6250000   0.3750000   0.2500000), wk =   0.0039062
        k(   44) = (  -0.6250000   0.2500000   0.3750000), wk =   0.0039062
        k(   45) = (  -0.6250000   0.1250000   0.5000000), wk =   0.0039062
        k(   46) = (  -0.6250000   0.0000000   0.6250000), wk =   0.0039062
        k(   47) = (  -0.6250000  -0.1250000   0.7500000), wk =   0.0039062
        k(   48) = (  -0.6250000  -0.2500000   0.8750000), wk =   0.0039062
        k(   49) = (  -0.7500000   0.7500000   0.0000000), wk =   0.0039062
        k(   50) = (  -0.7500000   0.6250000   0.1250000), wk =   0.0039062
        k(   51) = (  -0.7500000   0.5000000   0.2500000), wk =   0.0039062
        k(   52) = (  -0.7500000   0.3750000   0.3750000), wk =   0.0039062
        k(   53) = (  -0.7500000   0.2500000   0.5000000), wk =   0.0039062
        k(   54) = (  -0.7500000   0.1250000   0.6250000), wk =   0.0039062
        k(   55) = (  -0.7500000   0.0000000   0.7500000), wk =   0.0039062
        k(   56) = (  -0.7500000  -0.1250000   0.8750000), wk =   0.0039062
        k(   57) = (  -0.8750000   0.8750000   0.0000000), wk =   0.0039062
        k(   58) = (  -0.8750000   0.7500000   0.1250000), wk =   0.0039062
        k(   59) = (  -0.8750000   0.6250000   0.2500000), wk =   0.0039062
        k(   60) = (  -0.8750000   0.5000000   0.3750000), wk =   0.0039062
        k(   61) = (  -0.8750000   0.3750000   0.5000000), wk =   0.0039062
        k(   62) = (  -0.8750000   0.2500000   0.6250000), wk =   0.0039062
        k(   63) = (  -0.8750000   0.1250000   0.7500000), wk =   0.0039062
        k(   64) = (  -0.8750000   0.0000000   0.8750000), wk =   0.0039062
        k(   65) = (   0.1250000   0.0000000   0.1250000), wk =   0.0039062
        k(   66) = (   0.1250000  -0.1250000   0.2500000), wk =   0.0039062
        k(   67) = (   0.1250000  -0.2500000   0.3750000), wk =   0.0039062
        k(   68) = (   0.1250000  -0.3750000   0.5000000), wk =   0.0039062
        k(   69) = (   0.1250000  -0.5000000   0.6250000), wk =   0.0039062
        k(   70) = (   0.1250000  -0.6250000   0.7500000), wk =   0.0039062
        k(   71) = (   0.1250000  -0.7500000   0.8750000), wk =   0.0039062
        k(   72) = (   0.1250000  -0.8750000   1.0000000), wk =   0.0039062
        k(   73) = (   0.0000000   0.1250000   0.1250000), wk =   0.0039062
        k(   74) = (   0.0000000   0.0000000   0.2500000), wk =   0.0039062
        k(   75) = (   0.0000000  -0.1250000   0.3750000), wk =   0.0039062
        k(   76) = (   0.0000000  -0.2500000   0.5000000), wk =   0.0039062
        k(   77) = (   0.0000000  -0.3750000   0.6250000), wk =   0.0039062
        k(   78) = (   0.0000000  -0.5000000   0.7500000), wk =   0.0039062
        k(   79) = (   0.0000000  -0.6250000   0.8750000), wk =   0.0039062
        k(   80) = (   0.0000000  -0.7500000   1.0000000), wk =   0.0039062
        k(   81) = (  -0.1250000   0.2500000   0.1250000), wk =   0.0039062
        k(   82) = (  -0.1250000   0.1250000   0.2500000), wk =   0.0039062
        k(   83) = (  -0.1250000   0.0000000   0.3750000), wk =   0.0039062
        k(   84) = (  -0.1250000  -0.1250000   0.5000000), wk =   0.0039062
        k(   85) = (  -0.1250000  -0.2500000   0.6250000), wk =   0.0039062
        k(   86) = (  -0.1250000  -0.3750000   0.7500000), wk =   0.0039062
        k(   87) = (  -0.1250000  -0.5000000   0.8750000), wk =   0.0039062
        k(   88) = (  -0.1250000  -0.6250000   1.0000000), wk =   0.0039062
        k(   89) = (  -0.2500000   0.3750000   0.1250000), wk =   0.0039062
        k(   90) = (  -0.2500000   0.2500000   0.2500000), wk =   0.0039062
        k(   91) = (  -0.2500000   0.1250000   0.3750000), wk =   0.0039062
        k(   92) = (  -0.2500000   0.0000000   0.5000000), wk =   0.0039062
        k(   93) = (  -0.2500000  -0.1250000   0.6250000), wk =   0.0039062
        k(   94) = (  -0.2500000  -0.2500000   0.7500000), wk =   0.0039062
        k(   95) = (  -0.2500000  -0.3750000   0.8750000), wk =   0.0039062
        k(   96) = (  -0.2500000  -0.5000000   1.0000000), wk =   0.0039062
        k(   97) = (  -0.3750000   0.5000000   0.1250000), wk =   0.0039062
        k(   98) = (  -0.3750000   0.3750000   0.2500000), wk =   0.0039062
        k(   99) = (  -0.3750000   0.2500000   0.3750000), wk =   0.0039062
        k(  100) = (  -0.3750000   0.1250000   0.5000000), wk =   0.0039062
        k(  101) = (  -0.3750000   0.0000000   0.6250000), wk =   0.0039062
        k(  102) = (  -0.3750000  -0.1250000   0.7500000), wk =   0.0039062
        k(  103) = (  -0.3750000  -0.2500000   0.8750000), wk =   0.0039062
        k(  104) = (  -0.3750000  -0.3750000   1.0000000), wk =   0.0039062
        k(  105) = (  -0.5000000   0.6250000   0.1250000), wk =   0.0039062
        k(  106) = (  -0.5000000   0.5000000   0.2500000), wk =   0.0039062
        k(  107) = (  -0.5000000   0.3750000   0.3750000), wk =   0.0039062
        k(  108) = (  -0.5000000   0.2500000   0.5000000), wk =   0.0039062
        k(  109) = (  -0.5000000   0.1250000   0.6250000), wk =   0.0039062
        k(  110) = (  -0.5000000   0.0000000   0.7500000), wk =   0.0039062
        k(  111) = (  -0.5000000  -0.1250000   0.8750000), wk =   0.0039062
        k(  112) = (  -0.5000000  -0.2500000   1.0000000), wk =   0.0039062
        k(  113) = (  -0.6250000   0.7500000   0.1250000), wk =   0.0039062
        k(  114) = (  -0.6250000   0.6250000   0.2500000), wk =   0.0039062
        k(  115) = (  -0.6250000   0.5000000   0.3750000), wk =   0.0039062
        k(  116) = (  -0.6250000   0.3750000   0.5000000), wk =   0.0039062
        k(  117) = (  -0.6250000   0.2500000   0.6250000), wk =   0.0039062
        k(  118) = (  -0.6250000   0.1250000   0.7500000), wk =   0.0039062
        k(  119) = (  -0.6250000   0.0000000   0.8750000), wk =   0.0039062
        k(  120) = (  -0.6250000  -0.1250000   1.0000000), wk =   0.0039062
        k(  121) = (  -0.7500000   0.8750000   0.1250000), wk =   0.0039062
        k(  122) = (  -0.7500000   0.7500000   0.2500000), wk =   0.0039062
        k(  123) = (  -0.7500000   0.6250000   0.3750000), wk =   0.0039062
        k(  124) = (  -0.7500000   0.5000000   0.5000000), wk =   0.0039062
        k(  125) = (  -0.7500000   0.3750000   0.6250000), wk =   0.0039062
        k(  126) = (  -0.7500000   0.2500000   0.7500000), wk =   0.0039062
        k(  127) = (  -0.7500000   0.1250000   0.8750000), wk =   0.0039062
        k(  128) = (  -0.7500000   0.0000000   1.0000000), wk =   0.0039062
        k(  129) = (   0.2500000   0.0000000   0.2500000), wk =   0.0039062
        k(  130) = (   0.2500000  -0.1250000   0.3750000), wk =   0.0039062
        k(  131) = (   0.2500000  -0.2500000   0.5000000), wk =   0.0039062
        k(  132) = (   0.2500000  -0.3750000   0.6250000), wk =   0.0039062
        k(  133) = (   0.2500000  -0.5000000   0.7500000), wk =   0.0039062
        k(  134) = (   0.2500000  -0.6250000   0.8750000), wk =   0.0039062
        k(  135) = (   0.2500000  -0.7500000   1.0000000), wk =   0.0039062
        k(  136) = (   0.2500000  -0.8750000   1.1250000), wk =   0.0039062
        k(  137) = (   0.1250000   0.1250000   0.2500000), wk =   0.0039062
        k(  138) = (   0.1250000   0.0000000   0.3750000), wk =   0.0039062
        k(  139) = (   0.1250000  -0.1250000   0.5000000), wk =   0.0039062
        k(  140) = (   0.1250000  -0.2500000   0.6250000), wk =   0.0039062
        k(  141) = (   0.1250000  -0.3750000   0.7500000), wk =   0.0039062
        k(  142) = (   0.1250000  -0.5000000   0.8750000), wk =   0.0039062
        k(  143) = (   0.1250000  -0.6250000   1.0000000), wk =   0.0039062
        k(  144) = (   0.1250000  -0.7500000   1.1250000), wk =   0.0039062
        k(  145) = (   0.0000000   0.2500000   0.2500000), wk =   0.0039062
        k(  146) = (   0.0000000   0.1250000   0.3750000), wk =   0.0039062
        k(  147) = (   0.0000000   0.0000000   0.5000000), wk =   0.0039062
        k(  148) = (   0.0000000  -0.1250000   0.6250000), wk =   0.0039062
        k(  149) = (   0.0000000  -0.2500000   0.7500000), wk =   0.0039062
        k(  150) = (   0.0000000  -0.3750000   0.8750000), wk =   0.0039062
        k(  151) = (   0.0000000  -0.5000000   1.0000000), wk =   0.0039062
        k(  152) = (   0.0000000  -0.6250000   1.1250000), wk =   0.0039062
        k(  153) = (  -0.1250000   0.3750000   0.2500000), wk =   0.0039062
        k(  154) = (  -0.1250000   0.2500000   0.3750000), wk =   0.0039062
        k(  155) = (  -0.1250000   0.1250000   0.5000000), wk =   0.0039062
        k(  156) = (  -0.1250000   0.0000000   0.6250000), wk =   0.0039062
        k(  157) = (  -0.1250000  -0.1250000   0.7500000), wk =   0.0039062
        k(  158) = (  -0.1250000  -0.2500000   0.8750000), wk =   0.0039062
        k(  159) = (  -0.1250000  -0.3750000   1.0000000), wk =   0.0039062
        k(  160) = (  -0.1250000  -0.5000000   1.1250000), wk =   0.0039062
        k(  161) = (  -0.2500000   0.5000000   0.2500000), wk =   0.0039062
        k(  162) = (  -0.2500000   0.3750000   0.3750000), wk =   0.0039062
        k(  163) = (  -0.2500000   0.2500000   0.5000000), wk =   0.0039062
        k(  164) = (  -0.2500000   0.1250000   0.6250000), wk =   0.0039062
        k(  165) = (  -0.2500000   0.0000000   0.7500000), wk =   0.0039062
        k(  166) = (  -0.2500000  -0.1250000   0.8750000), wk =   0.0039062
        k(  167) = (  -0.2500000  -0.2500000   1.0000000), wk =   0.0039062
        k(  168) = (  -0.2500000  -0.3750000   1.1250000), wk =   0.0039062
        k(  169) = (  -0.3750000   0.6250000   0.2500000), wk =   0.0039062
        k(  170) = (  -0.3750000   0.5000000   0.3750000), wk =   0.0039062
        k(  171) = (  -0.3750000   0.3750000   0.5000000), wk =   0.0039062
        k(  172) = (  -0.3750000   0.2500000   0.6250000), wk =   0.0039062
        k(  173) = (  -0.3750000   0.1250000   0.7500000), wk =   0.0039062
        k(  174) = (  -0.3750000   0.0000000   0.8750000), wk =   0.0039062
        k(  175) = (  -0.3750000  -0.1250000   1.0000000), wk =   0.0039062
        k(  176) = (  -0.3750000  -0.2500000   1.1250000), wk =   0.0039062
        k(  177) = (  -0.5000000   0.7500000   0.2500000), wk =   0.0039062
        k(  178) = (  -0.5000000   0.6250000   0.3750000), wk =   0.0039062
        k(  179) = (  -0.5000000   0.5000000   0.5000000), wk =   0.0039062
        k(  180) = (  -0.5000000   0.3750000   0.6250000), wk =   0.0039062
        k(  181) = (  -0.5000000   0.2500000   0.7500000), wk =   0.0039062
        k(  182) = (  -0.5000000   0.1250000   0.8750000), wk =   0.0039062
        k(  183) = (  -0.5000000   0.0000000   1.0000000), wk =   0.0039062
        k(  184) = (  -0.5000000  -0.1250000   1.1250000), wk =   0.0039062
        k(  185) = (  -0.6250000   0.8750000   0.2500000), wk =   0.0039062
        k(  186) = (  -0.6250000   0.7500000   0.3750000), wk =   0.0039062
        k(  187) = (  -0.6250000   0.6250000   0.5000000), wk =   0.0039062
        k(  188) = (  -0.6250000   0.5000000   0.6250000), wk =   0.0039062
        k(  189) = (  -0.6250000   0.3750000   0.7500000), wk =   0.0039062
        k(  190) = (  -0.6250000   0.2500000   0.8750000), wk =   0.0039062
        k(  191) = (  -0.6250000   0.1250000   1.0000000), wk =   0.0039062
        k(  192) = (  -0.6250000   0.0000000   1.1250000), wk =   0.0039062
        k(  193) = (   0.3750000   0.0000000   0.3750000), wk =   0.0039062
        k(  194) = (   0.3750000  -0.1250000   0.5000000), wk =   0.0039062
        k(  195) = (   0.3750000  -0.2500000   0.6250000), wk =   0.0039062
        k(  196) = (   0.3750000  -0.3750000   0.7500000), wk =   0.0039062
        k(  197) = (   0.3750000  -0.5000000   0.8750000), wk =   0.0039062
        k(  198) = (   0.3750000  -0.6250000   1.0000000), wk =   0.0039062
        k(  199) = (   0.3750000  -0.7500000   1.1250000), wk =   0.0039062
        k(  200) = (   0.3750000  -0.8750000   1.2500000), wk =   0.0039062
        k(  201) = (   0.2500000   0.1250000   0.3750000), wk =   0.0039062
        k(  202) = (   0.2500000   0.0000000   0.5000000), wk =   0.0039062
        k(  203) = (   0.2500000  -0.1250000   0.6250000), wk =   0.0039062
        k(  204) = (   0.2500000  -0.2500000   0.7500000), wk =   0.0039062
        k(  205) = (   0.2500000  -0.3750000   0.8750000), wk =   0.0039062
        k(  206) = (   0.2500000  -0.5000000   1.0000000), wk =   0.0039062
        k(  207) = (   0.2500000  -0.6250000   1.1250000), wk =   0.0039062
        k(  208) = (   0.2500000  -0.7500000   1.2500000), wk =   0.0039062
        k(  209) = (   0.1250000   0.2500000   0.3750000), wk =   0.0039062
        k(  210) = (   0.1250000   0.1250000   0.5000000), wk =   0.0039062
        k(  211) = (   0.1250000   0.0000000   0.6250000), wk =   0.0039062
        k(  212) = (   0.1250000  -0.1250000   0.7500000), wk =   0.0039062
        k(  213) = (   0.1250000  -0.2500000   0.8750000), wk =   0.0039062
        k(  214) = (   0.1250000  -0.3750000   1.0000000), wk =   0.0039062
        k(  215) = (   0.1250000  -0.5000000   1.1250000), wk =   0.0039062
        k(  216) = (   0.1250000  -0.6250000   1.2500000), wk =   0.0039062
        k(  217) = (   0.0000000   0.3750000   0.3750000), wk =   0.0039062
        k(  218) = (   0.0000000   0.2500000   0.5000000), wk =   0.0039062
        k(  219) = (   0.0000000   0.1250000   0.6250000), wk =   0.0039062
        k(  220) = (   0.0000000   0.0000000   0.7500000), wk =   0.0039062
        k(  221) = (   0.0000000  -0.1250000   0.8750000), wk =   0.0039062
        k(  222) = (   0.0000000  -0.2500000   1.0000000), wk =   0.0039062
        k(  223) = (   0.0000000  -0.3750000   1.1250000), wk =   0.0039062
        k(  224) = (   0.0000000  -0.5000000   1.2500000), wk =   0.0039062
        k(  225) = (  -0.1250000   0.5000000   0.3750000), wk =   0.0039062
        k(  226) = (  -0.1250000   0.3750000   0.5000000), wk =   0.0039062
        k(  227) = (  -0.1250000   0.2500000   0.6250000), wk =   0.0039062
        k(  228) = (  -0.1250000   0.1250000   0.7500000), wk =   0.0039062
        k(  229) = (  -0.1250000   0.0000000   0.8750000), wk =   0.0039062
        k(  230) = (  -0.1250000  -0.1250000   1.0000000), wk =   0.0039062
        k(  231) = (  -0.1250000  -0.2500000   1.1250000), wk =   0.0039062
        k(  232) = (  -0.1250000  -0.3750000   1.2500000), wk =   0.0039062
        k(  233) = (  -0.2500000   0.6250000   0.3750000), wk =   0.0039062
        k(  234) = (  -0.2500000   0.5000000   0.5000000), wk =   0.0039062
        k(  235) = (  -0.2500000   0.3750000   0.6250000), wk =   0.0039062
        k(  236) = (  -0.2500000   0.2500000   0.7500000), wk =   0.0039062
        k(  237) = (  -0.2500000   0.1250000   0.8750000), wk =   0.0039062
        k(  238) = (  -0.2500000   0.0000000   1.0000000), wk =   0.0039062
        k(  239) = (  -0.2500000  -0.1250000   1.1250000), wk =   0.0039062
        k(  240) = (  -0.2500000  -0.2500000   1.2500000), wk =   0.0039062
        k(  241) = (  -0.3750000   0.7500000   0.3750000), wk =   0.0039062
        k(  242) = (  -0.3750000   0.6250000   0.5000000), wk =   0.0039062
        k(  243) = (  -0.3750000   0.5000000   0.6250000), wk =   0.0039062
        k(  244) = (  -0.3750000   0.3750000   0.7500000), wk =   0.0039062
        k(  245) = (  -0.3750000   0.2500000   0.8750000), wk =   0.0039062
        k(  246) = (  -0.3750000   0.1250000   1.0000000), wk =   0.0039062
        k(  247) = (  -0.3750000   0.0000000   1.1250000), wk =   0.0039062
        k(  248) = (  -0.3750000  -0.1250000   1.2500000), wk =   0.0039062
        k(  249) = (  -0.5000000   0.8750000   0.3750000), wk =   0.0039062
        k(  250) = (  -0.5000000   0.7500000   0.5000000), wk =   0.0039062
        k(  251) = (  -0.5000000   0.6250000   0.6250000), wk =   0.0039062
        k(  252) = (  -0.5000000   0.5000000   0.7500000), wk =   0.0039062
        k(  253) = (  -0.5000000   0.3750000   0.8750000), wk =   0.0039062
        k(  254) = (  -0.5000000   0.2500000   1.0000000), wk =   0.0039062
        k(  255) = (  -0.5000000   0.1250000   1.1250000), wk =   0.0039062
        k(  256) = (  -0.5000000   0.0000000   1.2500000), wk =   0.0039062
        k(  257) = (   0.5000000   0.0000000   0.5000000), wk =   0.0039062
        k(  258) = (   0.5000000  -0.1250000   0.6250000), wk =   0.0039062
        k(  259) = (   0.5000000  -0.2500000   0.7500000), wk =   0.0039062
        k(  260) = (   0.5000000  -0.3750000   0.8750000), wk =   0.0039062
        k(  261) = (   0.5000000  -0.5000000   1.0000000), wk =   0.0039062
        k(  262) = (   0.5000000  -0.6250000   1.1250000), wk =   0.0039062
        k(  263) = (   0.5000000  -0.7500000   1.2500000), wk =   0.0039062
        k(  264) = (   0.5000000  -0.8750000   1.3750000), wk =   0.0039062
        k(  265) = (   0.3750000   0.1250000   0.5000000), wk =   0.0039062
        k(  266) = (   0.3750000   0.0000000   0.6250000), wk =   0.0039062
        k(  267) = (   0.3750000  -0.1250000   0.7500000), wk =   0.0039062
        k(  268) = (   0.3750000  -0.2500000   0.8750000), wk =   0.0039062
        k(  269) = (   0.3750000  -0.3750000   1.0000000), wk =   0.0039062
        k(  270) = (   0.3750000  -0.5000000   1.1250000), wk =   0.0039062
        k(  271) = (   0.3750000  -0.6250000   1.2500000), wk =   0.0039062
        k(  272) = (   0.3750000  -0.7500000   1.3750000), wk =   0.0039062
        k(  273) = (   0.2500000   0.2500000   0.5000000), wk =   0.0039062
        k(  274) = (   0.2500000   0.1250000   0.6250000), wk =   0.0039062
        k(  275) = (   0.2500000   0.0000000   0.7500000), wk =   0.0039062
        k(  276) = (   0.2500000  -0.1250000   0.8750000), wk =   0.0039062
        k(  277) = (   0.2500000  -0.2500000   1.0000000), wk =   0.0039062
        k(  278) = (   0.2500000  -0.3750000   1.1250000), wk =   0.0039062
        k(  279) = (   0.2500000  -0.5000000   1.2500000), wk =   0.0039062
        k(  280) = (   0.2500000  -0.6250000   1.3750000), wk =   0.0039062
        k(  281) = (   0.1250000   0.3750000   0.5000000), wk =   0.0039062
        k(  282) = (   0.1250000   0.2500000   0.6250000), wk =   0.0039062
        k(  283) = (   0.1250000   0.1250000   0.7500000), wk =   0.0039062
        k(  284) = (   0.1250000   0.0000000   0.8750000), wk =   0.0039062
        k(  285) = (   0.1250000  -0.1250000   1.0000000), wk =   0.0039062
        k(  286) = (   0.1250000  -0.2500000   1.1250000), wk =   0.0039062
        k(  287) = (   0.1250000  -0.3750000   1.2500000), wk =   0.0039062
        k(  288) = (   0.1250000  -0.5000000   1.3750000), wk =   0.0039062
        k(  289) = (   0.0000000   0.5000000   0.5000000), wk =   0.0039062
        k(  290) = (   0.0000000   0.3750000   0.6250000), wk =   0.0039062
        k(  291) = (   0.0000000   0.2500000   0.7500000), wk =   0.0039062
        k(  292) = (   0.0000000   0.1250000   0.8750000), wk =   0.0039062
        k(  293) = (   0.0000000   0.0000000   1.0000000), wk =   0.0039062
        k(  294) = (   0.0000000  -0.1250000   1.1250000), wk =   0.0039062
        k(  295) = (   0.0000000  -0.2500000   1.2500000), wk =   0.0039062
        k(  296) = (   0.0000000  -0.3750000   1.3750000), wk =   0.0039062
        k(  297) = (  -0.1250000   0.6250000   0.5000000), wk =   0.0039062
        k(  298) = (  -0.1250000   0.5000000   0.6250000), wk =   0.0039062
        k(  299) = (  -0.1250000   0.3750000   0.7500000), wk =   0.0039062
        k(  300) = (  -0.1250000   0.2500000   0.8750000), wk =   0.0039062
        k(  301) = (  -0.1250000   0.1250000   1.0000000), wk =   0.0039062
        k(  302) = (  -0.1250000   0.0000000   1.1250000), wk =   0.0039062
        k(  303) = (  -0.1250000  -0.1250000   1.2500000), wk =   0.0039062
        k(  304) = (  -0.1250000  -0.2500000   1.3750000), wk =   0.0039062
        k(  305) = (  -0.2500000   0.7500000   0.5000000), wk =   0.0039062
        k(  306) = (  -0.2500000   0.6250000   0.6250000), wk =   0.0039062
        k(  307) = (  -0.2500000   0.5000000   0.7500000), wk =   0.0039062
        k(  308) = (  -0.2500000   0.3750000   0.8750000), wk =   0.0039062
        k(  309) = (  -0.2500000   0.2500000   1.0000000), wk =   0.0039062
        k(  310) = (  -0.2500000   0.1250000   1.1250000), wk =   0.0039062
        k(  311) = (  -0.2500000   0.0000000   1.2500000), wk =   0.0039062
        k(  312) = (  -0.2500000  -0.1250000   1.3750000), wk =   0.0039062
        k(  313) = (  -0.3750000   0.8750000   0.5000000), wk =   0.0039062
        k(  314) = (  -0.3750000   0.7500000   0.6250000), wk =   0.0039062
        k(  315) = (  -0.3750000   0.6250000   0.7500000), wk =   0.0039062
        k(  316) = (  -0.3750000   0.5000000   0.8750000), wk =   0.0039062
        k(  317) = (  -0.3750000   0.3750000   1.0000000), wk =   0.0039062
        k(  318) = (  -0.3750000   0.2500000   1.1250000), wk =   0.0039062
        k(  319) = (  -0.3750000   0.1250000   1.2500000), wk =   0.0039062
        k(  320) = (  -0.3750000   0.0000000   1.3750000), wk =   0.0039062
        k(  321) = (   0.6250000   0.0000000   0.6250000), wk =   0.0039062
        k(  322) = (   0.6250000  -0.1250000   0.7500000), wk =   0.0039062
        k(  323) = (   0.6250000  -0.2500000   0.8750000), wk =   0.0039062
        k(  324) = (   0.6250000  -0.3750000   1.0000000), wk =   0.0039062
        k(  325) = (   0.6250000  -0.5000000   1.1250000), wk =   0.0039062
        k(  326) = (   0.6250000  -0.6250000   1.2500000), wk =   0.0039062
        k(  327) = (   0.6250000  -0.7500000   1.3750000), wk =   0.0039062
        k(  328) = (   0.6250000  -0.8750000   1.5000000), wk =   0.0039062
        k(  329) = (   0.5000000   0.1250000   0.6250000), wk =   0.0039062
        k(  330) = (   0.5000000   0.0000000   0.7500000), wk =   0.0039062
        k(  331) = (   0.5000000  -0.1250000   0.8750000), wk =   0.0039062
        k(  332) = (   0.5000000  -0.2500000   1.0000000), wk =   0.0039062
        k(  333) = (   0.5000000  -0.3750000   1.1250000), wk =   0.0039062
        k(  334) = (   0.5000000  -0.5000000   1.2500000), wk =   0.0039062
        k(  335) = (   0.5000000  -0.6250000   1.3750000), wk =   0.0039062
        k(  336) = (   0.5000000  -0.7500000   1.5000000), wk =   0.0039062
        k(  337) = (   0.3750000   0.2500000   0.6250000), wk =   0.0039062
        k(  338) = (   0.3750000   0.1250000   0.7500000), wk =   0.0039062
        k(  339) = (   0.3750000   0.0000000   0.8750000), wk =   0.0039062
        k(  340) = (   0.3750000  -0.1250000   1.0000000), wk =   0.0039062
        k(  341) = (   0.3750000  -0.2500000   1.1250000), wk =   0.0039062
        k(  342) = (   0.3750000  -0.3750000   1.2500000), wk =   0.0039062
        k(  343) = (   0.3750000  -0.5000000   1.3750000), wk =   0.0039062
        k(  344) = (   0.3750000  -0.6250000   1.5000000), wk =   0.0039062
        k(  345) = (   0.2500000   0.3750000   0.6250000), wk =   0.0039062
        k(  346) = (   0.2500000   0.2500000   0.7500000), wk =   0.0039062
        k(  347) = (   0.2500000   0.1250000   0.8750000), wk =   0.0039062
        k(  348) = (   0.2500000   0.0000000   1.0000000), wk =   0.0039062
        k(  349) = (   0.2500000  -0.1250000   1.1250000), wk =   0.0039062
        k(  350) = (   0.2500000  -0.2500000   1.2500000), wk =   0.0039062
        k(  351) = (   0.2500000  -0.3750000   1.3750000), wk =   0.0039062
        k(  352) = (   0.2500000  -0.5000000   1.5000000), wk =   0.0039062
        k(  353) = (   0.1250000   0.5000000   0.6250000), wk =   0.0039062
        k(  354) = (   0.1250000   0.3750000   0.7500000), wk =   0.0039062
        k(  355) = (   0.1250000   0.2500000   0.8750000), wk =   0.0039062
        k(  356) = (   0.1250000   0.1250000   1.0000000), wk =   0.0039062
        k(  357) = (   0.1250000   0.0000000   1.1250000), wk =   0.0039062
        k(  358) = (   0.1250000  -0.1250000   1.2500000), wk =   0.0039062
        k(  359) = (   0.1250000  -0.2500000   1.3750000), wk =   0.0039062
        k(  360) = (   0.1250000  -0.3750000   1.5000000), wk =   0.0039062
        k(  361) = (   0.0000000   0.6250000   0.6250000), wk =   0.0039062
        k(  362) = (   0.0000000   0.5000000   0.7500000), wk =   0.0039062
        k(  363) = (   0.0000000   0.3750000   0.8750000), wk =   0.0039062
        k(  364) = (   0.0000000   0.2500000   1.0000000), wk =   0.0039062
        k(  365) = (   0.0000000   0.1250000   1.1250000), wk =   0.0039062
        k(  366) = (   0.0000000   0.0000000   1.2500000), wk =   0.0039062
        k(  367) = (   0.0000000  -0.1250000   1.3750000), wk =   0.0039062
        k(  368) = (   0.0000000  -0.2500000   1.5000000), wk =   0.0039062
        k(  369) = (  -0.1250000   0.7500000   0.6250000), wk =   0.0039062
        k(  370) = (  -0.1250000   0.6250000   0.7500000), wk =   0.0039062
        k(  371) = (  -0.1250000   0.5000000   0.8750000), wk =   0.0039062
        k(  372) = (  -0.1250000   0.3750000   1.0000000), wk =   0.0039062
        k(  373) = (  -0.1250000   0.2500000   1.1250000), wk =   0.0039062
        k(  374) = (  -0.1250000   0.1250000   1.2500000), wk =   0.0039062
        k(  375) = (  -0.1250000   0.0000000   1.3750000), wk =   0.0039062
        k(  376) = (  -0.1250000  -0.1250000   1.5000000), wk =   0.0039062
        k(  377) = (  -0.2500000   0.8750000   0.6250000), wk =   0.0039062
        k(  378) = (  -0.2500000   0.7500000   0.7500000), wk =   0.0039062
        k(  379) = (  -0.2500000   0.6250000   0.8750000), wk =   0.0039062
        k(  380) = (  -0.2500000   0.5000000   1.0000000), wk =   0.0039062
        k(  381) = (  -0.2500000   0.3750000   1.1250000), wk =   0.0039062
        k(  382) = (  -0.2500000   0.2500000   1.2500000), wk =   0.0039062
        k(  383) = (  -0.2500000   0.1250000   1.3750000), wk =   0.0039062
        k(  384) = (  -0.2500000   0.0000000   1.5000000), wk =   0.0039062
        k(  385) = (   0.7500000   0.0000000   0.7500000), wk =   0.0039062
        k(  386) = (   0.7500000  -0.1250000   0.8750000), wk =   0.0039062
        k(  387) = (   0.7500000  -0.2500000   1.0000000), wk =   0.0039062
        k(  388) = (   0.7500000  -0.3750000   1.1250000), wk =   0.0039062
        k(  389) = (   0.7500000  -0.5000000   1.2500000), wk =   0.0039062
        k(  390) = (   0.7500000  -0.6250000   1.3750000), wk =   0.0039062
        k(  391) = (   0.7500000  -0.7500000   1.5000000), wk =   0.0039062
        k(  392) = (   0.7500000  -0.8750000   1.6250000), wk =   0.0039062
        k(  393) = (   0.6250000   0.1250000   0.7500000), wk =   0.0039062
        k(  394) = (   0.6250000   0.0000000   0.8750000), wk =   0.0039062
        k(  395) = (   0.6250000  -0.1250000   1.0000000), wk =   0.0039062
        k(  396) = (   0.6250000  -0.2500000   1.1250000), wk =   0.0039062
        k(  397) = (   0.6250000  -0.3750000   1.2500000), wk =   0.0039062
        k(  398) = (   0.6250000  -0.5000000   1.3750000), wk =   0.0039062
        k(  399) = (   0.6250000  -0.6250000   1.5000000), wk =   0.0039062
        k(  400) = (   0.6250000  -0.7500000   1.6250000), wk =   0.0039062
        k(  401) = (   0.5000000   0.2500000   0.7500000), wk =   0.0039062
        k(  402) = (   0.5000000   0.1250000   0.8750000), wk =   0.0039062
        k(  403) = (   0.5000000   0.0000000   1.0000000), wk =   0.0039062
        k(  404) = (   0.5000000  -0.1250000   1.1250000), wk =   0.0039062
        k(  405) = (   0.5000000  -0.2500000   1.2500000), wk =   0.0039062
        k(  406) = (   0.5000000  -0.3750000   1.3750000), wk =   0.0039062
        k(  407) = (   0.5000000  -0.5000000   1.5000000), wk =   0.0039062
        k(  408) = (   0.5000000  -0.6250000   1.6250000), wk =   0.0039062
        k(  409) = (   0.3750000   0.3750000   0.7500000), wk =   0.0039062
        k(  410) = (   0.3750000   0.2500000   0.8750000), wk =   0.0039062
        k(  411) = (   0.3750000   0.1250000   1.0000000), wk =   0.0039062
        k(  412) = (   0.3750000   0.0000000   1.1250000), wk =   0.0039062
        k(  413) = (   0.3750000  -0.1250000   1.2500000), wk =   0.0039062
        k(  414) = (   0.3750000  -0.2500000   1.3750000), wk =   0.0039062
        k(  415) = (   0.3750000  -0.3750000   1.5000000), wk =   0.0039062
        k(  416) = (   0.3750000  -0.5000000   1.6250000), wk =   0.0039062
        k(  417) = (   0.2500000   0.5000000   0.7500000), wk =   0.0039062
        k(  418) = (   0.2500000   0.3750000   0.8750000), wk =   0.0039062
        k(  419) = (   0.2500000   0.2500000   1.0000000), wk =   0.0039062
        k(  420) = (   0.2500000   0.1250000   1.1250000), wk =   0.0039062
        k(  421) = (   0.2500000   0.0000000   1.2500000), wk =   0.0039062
        k(  422) = (   0.2500000  -0.1250000   1.3750000), wk =   0.0039062
        k(  423) = (   0.2500000  -0.2500000   1.5000000), wk =   0.0039062
        k(  424) = (   0.2500000  -0.3750000   1.6250000), wk =   0.0039062
        k(  425) = (   0.1250000   0.6250000   0.7500000), wk =   0.0039062
        k(  426) = (   0.1250000   0.5000000   0.8750000), wk =   0.0039062
        k(  427) = (   0.1250000   0.3750000   1.0000000), wk =   0.0039062
        k(  428) = (   0.1250000   0.2500000   1.1250000), wk =   0.0039062
        k(  429) = (   0.1250000   0.1250000   1.2500000), wk =   0.0039062
        k(  430) = (   0.1250000   0.0000000   1.3750000), wk =   0.0039062
        k(  431) = (   0.1250000  -0.1250000   1.5000000), wk =   0.0039062
        k(  432) = (   0.1250000  -0.2500000   1.6250000), wk =   0.0039062
        k(  433) = (   0.0000000   0.7500000   0.7500000), wk =   0.0039062
        k(  434) = (   0.0000000   0.6250000   0.8750000), wk =   0.0039062
        k(  435) = (   0.0000000   0.5000000   1.0000000), wk =   0.0039062
        k(  436) = (   0.0000000   0.3750000   1.1250000), wk =   0.0039062
        k(  437) = (   0.0000000   0.2500000   1.2500000), wk =   0.0039062
        k(  438) = (   0.0000000   0.1250000   1.3750000), wk =   0.0039062
        k(  439) = (   0.0000000   0.0000000   1.5000000), wk =   0.0039062
        k(  440) = (   0.0000000  -0.1250000   1.6250000), wk =   0.0039062
        k(  441) = (  -0.1250000   0.8750000   0.7500000), wk =   0.0039062
        k(  442) = (  -0.1250000   0.7500000   0.8750000), wk =   0.0039062
        k(  443) = (  -0.1250000   0.6250000   1.0000000), wk =   0.0039062
        k(  444) = (  -0.1250000   0.5000000   1.1250000), wk =   0.0039062
        k(  445) = (  -0.1250000   0.3750000   1.2500000), wk =   0.0039062
        k(  446) = (  -0.1250000   0.2500000   1.3750000), wk =   0.0039062
        k(  447) = (  -0.1250000   0.1250000   1.5000000), wk =   0.0039062
        k(  448) = (  -0.1250000   0.0000000   1.6250000), wk =   0.0039062
        k(  449) = (   0.8750000   0.0000000   0.8750000), wk =   0.0039062
        k(  450) = (   0.8750000  -0.1250000   1.0000000), wk =   0.0039062
        k(  451) = (   0.8750000  -0.2500000   1.1250000), wk =   0.0039062
        k(  452) = (   0.8750000  -0.3750000   1.2500000), wk =   0.0039062
        k(  453) = (   0.8750000  -0.5000000   1.3750000), wk =   0.0039062
        k(  454) = (   0.8750000  -0.6250000   1.5000000), wk =   0.0039062
        k(  455) = (   0.8750000  -0.7500000   1.6250000), wk =   0.0039062
        k(  456) = (   0.8750000  -0.8750000   1.7500000), wk =   0.0039062
        k(  457) = (   0.7500000   0.1250000   0.8750000), wk =   0.0039062
        k(  458) = (   0.7500000   0.0000000   1.0000000), wk =   0.0039062
        k(  459) = (   0.7500000  -0.1250000   1.1250000), wk =   0.0039062
        k(  460) = (   0.7500000  -0.2500000   1.2500000), wk =   0.0039062
        k(  461) = (   0.7500000  -0.3750000   1.3750000), wk =   0.0039062
        k(  462) = (   0.7500000  -0.5000000   1.5000000), wk =   0.0039062
        k(  463) = (   0.7500000  -0.6250000   1.6250000), wk =   0.0039062
        k(  464) = (   0.7500000  -0.7500000   1.7500000), wk =   0.0039062
        k(  465) = (   0.6250000   0.2500000   0.8750000), wk =   0.0039062
        k(  466) = (   0.6250000   0.1250000   1.0000000), wk =   0.0039062
        k(  467) = (   0.6250000   0.0000000   1.1250000), wk =   0.0039062
        k(  468) = (   0.6250000  -0.1250000   1.2500000), wk =   0.0039062
        k(  469) = (   0.6250000  -0.2500000   1.3750000), wk =   0.0039062
        k(  470) = (   0.6250000  -0.3750000   1.5000000), wk =   0.0039062
        k(  471) = (   0.6250000  -0.5000000   1.6250000), wk =   0.0039062
        k(  472) = (   0.6250000  -0.6250000   1.7500000), wk =   0.0039062
        k(  473) = (   0.5000000   0.3750000   0.8750000), wk =   0.0039062
        k(  474) = (   0.5000000   0.2500000   1.0000000), wk =   0.0039062
        k(  475) = (   0.5000000   0.1250000   1.1250000), wk =   0.0039062
        k(  476) = (   0.5000000   0.0000000   1.2500000), wk =   0.0039062
        k(  477) = (   0.5000000  -0.1250000   1.3750000), wk =   0.0039062
        k(  478) = (   0.5000000  -0.2500000   1.5000000), wk =   0.0039062
        k(  479) = (   0.5000000  -0.3750000   1.6250000), wk =   0.0039062
        k(  480) = (   0.5000000  -0.5000000   1.7500000), wk =   0.0039062
        k(  481) = (   0.3750000   0.5000000   0.8750000), wk =   0.0039062
        k(  482) = (   0.3750000   0.3750000   1.0000000), wk =   0.0039062
        k(  483) = (   0.3750000   0.2500000   1.1250000), wk =   0.0039062
        k(  484) = (   0.3750000   0.1250000   1.2500000), wk =   0.0039062
        k(  485) = (   0.3750000   0.0000000   1.3750000), wk =   0.0039062
        k(  486) = (   0.3750000  -0.1250000   1.5000000), wk =   0.0039062
        k(  487) = (   0.3750000  -0.2500000   1.6250000), wk =   0.0039062
        k(  488) = (   0.3750000  -0.3750000   1.7500000), wk =   0.0039062
        k(  489) = (   0.2500000   0.6250000   0.8750000), wk =   0.0039062
        k(  490) = (   0.2500000   0.5000000   1.0000000), wk =   0.0039062
        k(  491) = (   0.2500000   0.3750000   1.1250000), wk =   0.0039062
        k(  492) = (   0.2500000   0.2500000   1.2500000), wk =   0.0039062
        k(  493) = (   0.2500000   0.1250000   1.3750000), wk =   0.0039062
        k(  494) = (   0.2500000   0.0000000   1.5000000), wk =   0.0039062
        k(  495) = (   0.2500000  -0.1250000   1.6250000), wk =   0.0039062
        k(  496) = (   0.2500000  -0.2500000   1.7500000), wk =   0.0039062
        k(  497) = (   0.1250000   0.7500000   0.8750000), wk =   0.0039062
        k(  498) = (   0.1250000   0.6250000   1.0000000), wk =   0.0039062
        k(  499) = (   0.1250000   0.5000000   1.1250000), wk =   0.0039062
        k(  500) = (   0.1250000   0.3750000   1.2500000), wk =   0.0039062
        k(  501) = (   0.1250000   0.2500000   1.3750000), wk =   0.0039062
        k(  502) = (   0.1250000   0.1250000   1.5000000), wk =   0.0039062
        k(  503) = (   0.1250000   0.0000000   1.6250000), wk =   0.0039062
        k(  504) = (   0.1250000  -0.1250000   1.7500000), wk =   0.0039062
        k(  505) = (   0.0000000   0.8750000   0.8750000), wk =   0.0039062
        k(  506) = (   0.0000000   0.7500000   1.0000000), wk =   0.0039062
        k(  507) = (   0.0000000   0.6250000   1.1250000), wk =   0.0039062
        k(  508) = (   0.0000000   0.5000000   1.2500000), wk =   0.0039062
        k(  509) = (   0.0000000   0.3750000   1.3750000), wk =   0.0039062
        k(  510) = (   0.0000000   0.2500000   1.5000000), wk =   0.0039062
        k(  511) = (   0.0000000   0.1250000   1.6250000), wk =   0.0039062
        k(  512) = (   0.0000000   0.0000000   1.7500000), wk =   0.0039062

     PseudoPot. # 1 for Li read from file:
     ./Li_ONCV_PBE-1.0.upf
     MD5 check sum: bbae8bca9f993d5710bb78a551a8984a
     Pseudo is Norm-conserving, Zval =  3.0
     Generated using ONCVPSP code by D. R. Hamann
     Using radial grid of  602 points,  4 beta functions with: 
                l(1) =   0
                l(2) =   0
                l(3) =   1
                l(4) =   1
     EPW          :      4.11s CPU      9.69s WALL

     EPW          :      4.81s CPU     10.52s WALL

     No wavefunction gauge setting applied
     -------------------------------------------------------------------
     Wannierization on  8 x  8 x  8 electronic grid
     -------------------------------------------------------------------

     Spin CASE ( default = unpolarized )

     Initializing Wannier90


     Initial Wannier projections

     (   0.99756   0.56682   0.96592) :  l =   0 mr =   1
     (   0.74793   0.36739   0.48064) :  l =   0 mr =   1
     (   0.07375   0.00536   0.34708) :  l =   0 mr =   1
     (   0.34224   0.21795   0.13316) :  l =   0 mr =   1
     (   0.90052   0.38677   0.44548) :  l =   0 mr =   1
     (   0.66193   0.01611   0.65085) :  l =   0 mr =   1

      - Number of bands is (  6)
      - Number of total bands is (  6)
      - Number of excluded bands is (  0)
      - Number of wannier functions is (  6)
      - All guiding functions are given 

  Reading data about k-point neighbours 

      - All neighbours are found 

     AMN
      k points =   512 in    6 pools
            1 of   86 on ionode
            2 of   86 on ionode
            3 of   86 on ionode
            4 of   86 on ionode
            5 of   86 on ionode
            6 of   86 on ionode
            7 of   86 on ionode
            8 of   86 on ionode
            9 of   86 on ionode
           10 of   86 on ionode
           11 of   86 on ionode
           12 of   86 on ionode
           13 of   86 on ionode
           14 of   86 on ionode
           15 of   86 on ionode
           16 of   86 on ionode
           17 of   86 on ionode
           18 of   86 on ionode
           19 of   86 on ionode
           20 of   86 on ionode
           21 of   86 on ionode
           22 of   86 on ionode
           23 of   86 on ionode
           24 of   86 on ionode
           25 of   86 on ionode
           26 of   86 on ionode
           27 of   86 on ionode
           28 of   86 on ionode
           29 of   86 on ionode
           30 of   86 on ionode
           31 of   86 on ionode
           32 of   86 on ionode
           33 of   86 on ionode
           34 of   86 on ionode
           35 of   86 on ionode
           36 of   86 on ionode
           37 of   86 on ionode
           38 of   86 on ionode
           39 of   86 on ionode
           40 of   86 on ionode
           41 of   86 on ionode
           42 of   86 on ionode
           43 of   86 on ionode
           44 of   86 on ionode
           45 of   86 on ionode
           46 of   86 on ionode
           47 of   86 on ionode
           48 of   86 on ionode
           49 of   86 on ionode
           50 of   86 on ionode
           51 of   86 on ionode
           52 of   86 on ionode
           53 of   86 on ionode
           54 of   86 on ionode
           55 of   86 on ionode
           56 of   86 on ionode
           57 of   86 on ionode
           58 of   86 on ionode
           59 of   86 on ionode
           60 of   86 on ionode
           61 of   86 on ionode
           62 of   86 on ionode
           63 of   86 on ionode
           64 of   86 on ionode
           65 of   86 on ionode
           66 of   86 on ionode
           67 of   86 on ionode
           68 of   86 on ionode
           69 of   86 on ionode
           70 of   86 on ionode
           71 of   86 on ionode
           72 of   86 on ionode
           73 of   86 on ionode
           74 of   86 on ionode
           75 of   86 on ionode
           76 of   86 on ionode
           77 of   86 on ionode
           78 of   86 on ionode
           79 of   86 on ionode
           80 of   86 on ionode
           81 of   86 on ionode
           82 of   86 on ionode
           83 of   86 on ionode
           84 of   86 on ionode
           85 of   86 on ionode
           86 of   86 on ionode

     AMN calculated

     MMN
      k points =   512 in    6 pools
            1 of   86 on ionode
            2 of   86 on ionode
            3 of   86 on ionode
            4 of   86 on ionode
            5 of   86 on ionode
            6 of   86 on ionode
            7 of   86 on ionode
            8 of   86 on ionode
            9 of   86 on ionode
           10 of   86 on ionode
           11 of   86 on ionode
           12 of   86 on ionode
           13 of   86 on ionode
           14 of   86 on ionode
           15 of   86 on ionode
           16 of   86 on ionode
           17 of   86 on ionode
           18 of   86 on ionode
           19 of   86 on ionode
           20 of   86 on ionode
           21 of   86 on ionode
           22 of   86 on ionode
           23 of   86 on ionode
           24 of   86 on ionode
           25 of   86 on ionode
           26 of   86 on ionode
           27 of   86 on ionode
           28 of   86 on ionode
           29 of   86 on ionode
           30 of   86 on ionode
           31 of   86 on ionode
           32 of   86 on ionode
           33 of   86 on ionode
           34 of   86 on ionode
           35 of   86 on ionode
           36 of   86 on ionode
           37 of   86 on ionode
           38 of   86 on ionode
           39 of   86 on ionode
           40 of   86 on ionode
           41 of   86 on ionode
           42 of   86 on ionode
           43 of   86 on ionode
           44 of   86 on ionode
           45 of   86 on ionode
           46 of   86 on ionode
           47 of   86 on ionode
           48 of   86 on ionode
           49 of   86 on ionode
           50 of   86 on ionode
           51 of   86 on ionode
           52 of   86 on ionode
           53 of   86 on ionode
           54 of   86 on ionode
           55 of   86 on ionode
           56 of   86 on ionode
           57 of   86 on ionode
           58 of   86 on ionode
           59 of   86 on ionode
           60 of   86 on ionode
           61 of   86 on ionode
           62 of   86 on ionode
           63 of   86 on ionode
           64 of   86 on ionode
           65 of   86 on ionode
           66 of   86 on ionode
           67 of   86 on ionode
           68 of   86 on ionode
           69 of   86 on ionode
           70 of   86 on ionode
           71 of   86 on ionode
           72 of   86 on ionode
           73 of   86 on ionode
           74 of   86 on ionode
           75 of   86 on ionode
           76 of   86 on ionode
           77 of   86 on ionode
           78 of   86 on ionode
           79 of   86 on ionode
           80 of   86 on ionode
           81 of   86 on ionode
           82 of   86 on ionode
           83 of   86 on ionode
           84 of   86 on ionode
           85 of   86 on ionode
           86 of   86 on ionode
     MMN calculated

     Running Wannier90

     Wannier Function centers (cartesian, alat) and spreads (ang):

     (  -0.22759   0.22131   1.20939) :   7.39202
     (  -0.20960   0.37284   0.75196) :   4.17365
     (  -0.00969  -0.01376   0.00486) :   0.44698
     (   0.22045   0.28906   0.35840) :   7.97383
     (  -0.02689   0.62518   1.01420) :   5.87301
     (  -0.02897   0.00207   0.62454) :   5.17370

     -------------------------------------------------------------------
     WANNIER      :    121.03s CPU    123.58s WALL (       1 calls)
     -------------------------------------------------------------------

     Dipole matrix elements calculated


     Calculating kgmap

     Progress kgmap: ########################################
     kmaps        :      9.52s CPU      9.82s WALL (       1 calls)
     Symmetries of Bravais lattice:  48
     Symmetries of crystal:          48


     ===================================================================
     irreducible q point #    1
     ===================================================================

     Symmetries of small group of q: 48
          in addition sym. q -> -q+G:

     Number of q in the star =    1
     List of q in the star:
          1   0.000000000   0.000000000   0.000000000
     Imposing acoustic sum rule on the dynamical matrix

        q(    1 ) = (   0.0000000   0.0000000   0.0000000 )


     ===================================================================
     irreducible q point #    2
     ===================================================================

     Symmetries of small group of q:  4

     Number of q in the star =   12
     List of q in the star:
          1   0.000000000  -0.125000000   0.125000000
          2   0.125000000   0.000000000   0.125000000
          3  -0.125000000   0.000000000   0.125000000
          4   0.000000000   0.125000000   0.125000000
          5   0.125000000  -0.125000000   0.000000000
          6  -0.125000000   0.000000000  -0.125000000
          7   0.125000000   0.000000000  -0.125000000
          8   0.000000000  -0.125000000  -0.125000000
          9  -0.125000000  -0.125000000   0.000000000
         10  -0.125000000   0.125000000   0.000000000
         11   0.125000000   0.125000000   0.000000000
         12   0.000000000   0.125000000  -0.125000000

        q(    2 ) = (   0.0000000  -0.1250000   0.1250000 )
        q(    3 ) = (   0.1250000   0.0000000   0.1250000 )
        q(    4 ) = (  -0.1250000   0.0000000   0.1250000 )
        q(    5 ) = (   0.0000000   0.1250000   0.1250000 )
        q(    6 ) = (   0.1250000  -0.1250000   0.0000000 )
        q(    7 ) = (  -0.1250000   0.0000000  -0.1250000 )
        q(    8 ) = (   0.1250000   0.0000000  -0.1250000 )
        q(    9 ) = (   0.0000000  -0.1250000  -0.1250000 )
        q(   10 ) = (  -0.1250000  -0.1250000   0.0000000 )
        q(   11 ) = (  -0.1250000   0.1250000   0.0000000 )
        q(   12 ) = (   0.1250000   0.1250000   0.0000000 )
        q(   13 ) = (   0.0000000   0.1250000  -0.1250000 )


     ===================================================================
     irreducible q point #    3
     ===================================================================

     Symmetries of small group of q:  4

     Number of q in the star =   12
     List of q in the star:
          1   0.000000000  -0.250000000   0.250000000
          2   0.250000000   0.000000000   0.250000000
          3  -0.250000000   0.000000000   0.250000000
          4   0.000000000   0.250000000   0.250000000
          5   0.250000000  -0.250000000   0.000000000
          6  -0.250000000   0.000000000  -0.250000000
          7   0.250000000   0.000000000  -0.250000000
          8   0.000000000  -0.250000000  -0.250000000
          9  -0.250000000  -0.250000000   0.000000000
         10  -0.250000000   0.250000000   0.000000000
         11   0.250000000   0.250000000   0.000000000
         12   0.000000000   0.250000000  -0.250000000

        q(   14 ) = (   0.0000000  -0.2500000   0.2500000 )
        q(   15 ) = (   0.2500000   0.0000000   0.2500000 )
        q(   16 ) = (  -0.2500000   0.0000000   0.2500000 )
        q(   17 ) = (   0.0000000   0.2500000   0.2500000 )
        q(   18 ) = (   0.2500000  -0.2500000   0.0000000 )
        q(   19 ) = (  -0.2500000   0.0000000  -0.2500000 )
        q(   20 ) = (   0.2500000   0.0000000  -0.2500000 )
        q(   21 ) = (   0.0000000  -0.2500000  -0.2500000 )
        q(   22 ) = (  -0.2500000  -0.2500000   0.0000000 )
        q(   23 ) = (  -0.2500000   0.2500000   0.0000000 )
        q(   24 ) = (   0.2500000   0.2500000   0.0000000 )
        q(   25 ) = (   0.0000000   0.2500000  -0.2500000 )


     ===================================================================
     irreducible q point #    4
     ===================================================================

     Symmetries of small group of q:  4

     Number of q in the star =   12
     List of q in the star:
          1   0.000000000  -0.375000000   0.375000000
          2   0.375000000   0.000000000   0.375000000
          3  -0.375000000   0.000000000   0.375000000
          4   0.000000000   0.375000000   0.375000000
          5   0.375000000  -0.375000000   0.000000000
          6  -0.375000000   0.000000000  -0.375000000
          7   0.375000000   0.000000000  -0.375000000
          8   0.000000000  -0.375000000  -0.375000000
          9  -0.375000000  -0.375000000   0.000000000
         10  -0.375000000   0.375000000   0.000000000
         11   0.375000000   0.375000000   0.000000000
         12   0.000000000   0.375000000  -0.375000000

        q(   26 ) = (   0.0000000  -0.3750000   0.3750000 )
        q(   27 ) = (   0.3750000   0.0000000   0.3750000 )
        q(   28 ) = (  -0.3750000   0.0000000   0.3750000 )
        q(   29 ) = (   0.0000000   0.3750000   0.3750000 )
        q(   30 ) = (   0.3750000  -0.3750000   0.0000000 )
        q(   31 ) = (  -0.3750000   0.0000000  -0.3750000 )
        q(   32 ) = (   0.3750000   0.0000000  -0.3750000 )
        q(   33 ) = (   0.0000000  -0.3750000  -0.3750000 )
        q(   34 ) = (  -0.3750000  -0.3750000   0.0000000 )
        q(   35 ) = (  -0.3750000   0.3750000   0.0000000 )
        q(   36 ) = (   0.3750000   0.3750000   0.0000000 )
        q(   37 ) = (   0.0000000   0.3750000  -0.3750000 )


     ===================================================================
     irreducible q point #    5
     ===================================================================

     Symmetries of small group of q:  8
          in addition sym. q -> -q+G:

     Number of q in the star =    6
     List of q in the star:
          1   0.000000000   0.500000000  -0.500000000
          2  -0.500000000   0.500000000   0.000000000
          3   0.500000000   0.000000000   0.500000000
          4   0.500000000   0.000000000  -0.500000000
          5   0.000000000   0.500000000   0.500000000
          6   0.500000000   0.500000000   0.000000000

        q(   38 ) = (   0.0000000   0.5000000  -0.5000000 )
        q(   39 ) = (  -0.5000000   0.5000000   0.0000000 )
        q(   40 ) = (   0.5000000   0.0000000   0.5000000 )
        q(   41 ) = (   0.5000000   0.0000000  -0.5000000 )
        q(   42 ) = (   0.0000000   0.5000000   0.5000000 )
        q(   43 ) = (   0.5000000   0.5000000   0.0000000 )


     ===================================================================
     irreducible q point #    6
     ===================================================================

     Symmetries of small group of q:  2

     Number of q in the star =   24
     List of q in the star:
          1  -0.125000000  -0.125000000   0.250000000
          2  -0.125000000  -0.250000000   0.125000000
          3   0.125000000  -0.250000000   0.125000000
          4  -0.125000000   0.125000000  -0.250000000
          5  -0.125000000   0.250000000  -0.125000000
          6   0.125000000   0.125000000  -0.250000000
          7   0.125000000   0.250000000  -0.125000000
          8   0.125000000  -0.250000000  -0.125000000
          9  -0.250000000   0.125000000  -0.125000000
         10   0.250000000   0.125000000   0.125000000
         11   0.125000000   0.125000000   0.250000000
         12  -0.250000000  -0.125000000   0.125000000
         13   0.250000000  -0.125000000  -0.125000000
         14   0.125000000  -0.125000000  -0.250000000
         15   0.125000000  -0.125000000   0.250000000
         16   0.125000000   0.250000000   0.125000000
         17  -0.125000000  -0.125000000  -0.250000000
         18  -0.125000000   0.125000000   0.250000000
         19  -0.125000000   0.250000000   0.125000000
         20  -0.125000000  -0.250000000  -0.125000000
         21   0.250000000   0.125000000  -0.125000000
         22  -0.250000000   0.125000000   0.125000000
         23   0.250000000  -0.125000000   0.125000000
         24  -0.250000000  -0.125000000  -0.125000000

        q(   44 ) = (  -0.1250000  -0.1250000   0.2500000 )
        q(   45 ) = (  -0.1250000  -0.2500000   0.1250000 )
        q(   46 ) = (   0.1250000  -0.2500000   0.1250000 )
        q(   47 ) = (  -0.1250000   0.1250000  -0.2500000 )
        q(   48 ) = (  -0.1250000   0.2500000  -0.1250000 )
        q(   49 ) = (   0.1250000   0.1250000  -0.2500000 )
        q(   50 ) = (   0.1250000   0.2500000  -0.1250000 )
        q(   51 ) = (   0.1250000  -0.2500000  -0.1250000 )
        q(   52 ) = (  -0.2500000   0.1250000  -0.1250000 )
        q(   53 ) = (   0.2500000   0.1250000   0.1250000 )
        q(   54 ) = (   0.1250000   0.1250000   0.2500000 )
        q(   55 ) = (  -0.2500000  -0.1250000   0.1250000 )
        q(   56 ) = (   0.2500000  -0.1250000  -0.1250000 )
        q(   57 ) = (   0.1250000  -0.1250000  -0.2500000 )
        q(   58 ) = (   0.1250000  -0.1250000   0.2500000 )
        q(   59 ) = (   0.1250000   0.2500000   0.1250000 )
        q(   60 ) = (  -0.1250000  -0.1250000  -0.2500000 )
        q(   61 ) = (  -0.1250000   0.1250000   0.2500000 )
        q(   62 ) = (  -0.1250000   0.2500000   0.1250000 )
        q(   63 ) = (  -0.1250000  -0.2500000  -0.1250000 )
        q(   64 ) = (   0.2500000   0.1250000  -0.1250000 )
        q(   65 ) = (  -0.2500000   0.1250000   0.1250000 )
        q(   66 ) = (   0.2500000  -0.1250000   0.1250000 )
        q(   67 ) = (  -0.2500000  -0.1250000  -0.1250000 )


     ===================================================================
     irreducible q point #    7
     ===================================================================

     Symmetries of small group of q:  1

     Number of q in the star =   48
     List of q in the star:
          1  -0.125000000  -0.250000000   0.375000000
          2  -0.250000000  -0.125000000   0.375000000
          3  -0.125000000  -0.375000000   0.250000000
          4   0.125000000  -0.375000000   0.250000000
          5  -0.125000000   0.250000000  -0.375000000
          6  -0.125000000   0.375000000  -0.250000000
          7   0.125000000   0.250000000  -0.375000000
          8   0.125000000   0.375000000  -0.250000000
          9   0.250000000  -0.375000000  -0.125000000
         10  -0.375000000   0.125000000  -0.250000000
         11   0.375000000   0.125000000   0.250000000
         12   0.250000000   0.125000000   0.375000000
         13  -0.375000000  -0.125000000   0.250000000
         14   0.375000000  -0.125000000  -0.250000000
         15   0.125000000  -0.250000000  -0.375000000
         16   0.250000000  -0.125000000  -0.375000000
         17  -0.250000000   0.125000000  -0.375000000
         18  -0.375000000  -0.250000000   0.125000000
         19  -0.375000000   0.250000000  -0.125000000
         20   0.375000000   0.250000000   0.125000000
         21   0.250000000  -0.125000000   0.375000000
         22  -0.250000000   0.375000000  -0.125000000
         23   0.125000000  -0.375000000  -0.250000000
         24   0.125000000   0.375000000   0.250000000
         25   0.250000000   0.125000000  -0.375000000
         26  -0.125000000  -0.250000000  -0.375000000
         27  -0.250000000   0.125000000   0.375000000
         28  -0.125000000   0.375000000   0.250000000
         29  -0.125000000   0.250000000   0.375000000
         30   0.125000000  -0.250000000   0.375000000
         31  -0.125000000  -0.375000000  -0.250000000
         32   0.125000000   0.250000000   0.375000000
         33   0.375000000  -0.250000000  -0.125000000
         34   0.250000000   0.375000000   0.125000000
         35  -0.250000000  -0.375000000   0.125000000
         36   0.375000000   0.250000000  -0.125000000
         37  -0.375000000   0.250000000   0.125000000
         38   0.375000000  -0.250000000   0.125000000
         39  -0.375000000  -0.250000000  -0.125000000
         40  -0.250000000  -0.125000000  -0.375000000
         41   0.250000000  -0.375000000   0.125000000
         42  -0.250000000  -0.375000000  -0.125000000
         43   0.250000000   0.375000000  -0.125000000
         44  -0.250000000   0.375000000   0.125000000
         45  -0.375000000   0.125000000   0.250000000
         46  -0.375000000  -0.125000000  -0.250000000
         47   0.375000000  -0.125000000   0.250000000
         48   0.375000000   0.125000000  -0.250000000

        q(   68 ) = (  -0.1250000  -0.2500000   0.3750000 )
        q(   69 ) = (  -0.2500000  -0.1250000   0.3750000 )
        q(   70 ) = (  -0.1250000  -0.3750000   0.2500000 )
        q(   71 ) = (   0.1250000  -0.3750000   0.2500000 )
        q(   72 ) = (  -0.1250000   0.2500000  -0.3750000 )
        q(   73 ) = (  -0.1250000   0.3750000  -0.2500000 )
        q(   74 ) = (   0.1250000   0.2500000  -0.3750000 )
        q(   75 ) = (   0.1250000   0.3750000  -0.2500000 )
        q(   76 ) = (   0.2500000  -0.3750000  -0.1250000 )
        q(   77 ) = (  -0.3750000   0.1250000  -0.2500000 )
        q(   78 ) = (   0.3750000   0.1250000   0.2500000 )
        q(   79 ) = (   0.2500000   0.1250000   0.3750000 )
        q(   80 ) = (  -0.3750000  -0.1250000   0.2500000 )
        q(   81 ) = (   0.3750000  -0.1250000  -0.2500000 )
        q(   82 ) = (   0.1250000  -0.2500000  -0.3750000 )
        q(   83 ) = (   0.2500000  -0.1250000  -0.3750000 )
        q(   84 ) = (  -0.2500000   0.1250000  -0.3750000 )
        q(   85 ) = (  -0.3750000  -0.2500000   0.1250000 )
        q(   86 ) = (  -0.3750000   0.2500000  -0.1250000 )
        q(   87 ) = (   0.3750000   0.2500000   0.1250000 )
        q(   88 ) = (   0.2500000  -0.1250000   0.3750000 )
        q(   89 ) = (  -0.2500000   0.3750000  -0.1250000 )
        q(   90 ) = (   0.1250000  -0.3750000  -0.2500000 )
        q(   91 ) = (   0.1250000   0.3750000   0.2500000 )
        q(   92 ) = (   0.2500000   0.1250000  -0.3750000 )
        q(   93 ) = (  -0.1250000  -0.2500000  -0.3750000 )
        q(   94 ) = (  -0.2500000   0.1250000   0.3750000 )
        q(   95 ) = (  -0.1250000   0.3750000   0.2500000 )
        q(   96 ) = (  -0.1250000   0.2500000   0.3750000 )
        q(   97 ) = (   0.1250000  -0.2500000   0.3750000 )
        q(   98 ) = (  -0.1250000  -0.3750000  -0.2500000 )
        q(   99 ) = (   0.1250000   0.2500000   0.3750000 )
        q(  100 ) = (   0.3750000  -0.2500000  -0.1250000 )
        q(  101 ) = (   0.2500000   0.3750000   0.1250000 )
        q(  102 ) = (  -0.2500000  -0.3750000   0.1250000 )
        q(  103 ) = (   0.3750000   0.2500000  -0.1250000 )
        q(  104 ) = (  -0.3750000   0.2500000   0.1250000 )
        q(  105 ) = (   0.3750000  -0.2500000   0.1250000 )
        q(  106 ) = (  -0.3750000  -0.2500000  -0.1250000 )
        q(  107 ) = (  -0.2500000  -0.1250000  -0.3750000 )
        q(  108 ) = (   0.2500000  -0.3750000   0.1250000 )
        q(  109 ) = (  -0.2500000  -0.3750000  -0.1250000 )
        q(  110 ) = (   0.2500000   0.3750000  -0.1250000 )
        q(  111 ) = (  -0.2500000   0.3750000   0.1250000 )
        q(  112 ) = (  -0.3750000   0.1250000   0.2500000 )
        q(  113 ) = (  -0.3750000  -0.1250000  -0.2500000 )
        q(  114 ) = (   0.3750000  -0.1250000   0.2500000 )
        q(  115 ) = (   0.3750000   0.1250000  -0.2500000 )


     ===================================================================
     irreducible q point #    8
     ===================================================================

     Symmetries of small group of q:  1

     Number of q in the star =   48
     List of q in the star:
          1  -0.125000000   0.625000000  -0.500000000
          2   0.625000000  -0.125000000  -0.500000000
          3  -0.125000000   0.500000000  -0.625000000
          4   0.125000000   0.500000000  -0.625000000
          5  -0.125000000  -0.625000000   0.500000000
          6  -0.125000000  -0.500000000   0.625000000
          7   0.125000000  -0.625000000   0.500000000
          8   0.125000000  -0.500000000   0.625000000
          9  -0.625000000   0.500000000  -0.125000000
         10   0.500000000   0.125000000   0.625000000
         11  -0.500000000   0.125000000  -0.625000000
         12  -0.625000000   0.125000000  -0.500000000
         13   0.500000000  -0.125000000  -0.625000000
         14  -0.500000000  -0.125000000   0.625000000
         15   0.125000000   0.625000000   0.500000000
         16  -0.625000000  -0.125000000   0.500000000
         17   0.625000000   0.125000000   0.500000000
         18   0.500000000   0.625000000   0.125000000
         19   0.500000000  -0.625000000  -0.125000000
         20  -0.500000000  -0.625000000   0.125000000
         21  -0.625000000  -0.125000000  -0.500000000
         22   0.625000000  -0.500000000  -0.125000000
         23   0.125000000   0.500000000   0.625000000
         24   0.125000000  -0.500000000  -0.625000000
         25  -0.625000000   0.125000000   0.500000000
         26  -0.125000000   0.625000000   0.500000000
         27   0.625000000   0.125000000  -0.500000000
         28  -0.125000000  -0.500000000  -0.625000000
         29  -0.125000000  -0.625000000  -0.500000000
         30   0.125000000   0.625000000  -0.500000000
         31  -0.125000000   0.500000000   0.625000000
         32   0.125000000  -0.625000000  -0.500000000
         33  -0.500000000   0.625000000  -0.125000000
         34  -0.625000000  -0.500000000   0.125000000
         35   0.625000000   0.500000000   0.125000000
         36  -0.500000000  -0.625000000  -0.125000000
         37   0.500000000  -0.625000000   0.125000000
         38  -0.500000000   0.625000000   0.125000000
         39   0.500000000   0.625000000  -0.125000000
         40   0.625000000  -0.125000000   0.500000000
         41  -0.625000000   0.500000000   0.125000000
         42   0.625000000   0.500000000  -0.125000000
         43  -0.625000000  -0.500000000  -0.125000000
         44   0.625000000  -0.500000000   0.125000000
         45   0.500000000   0.125000000  -0.625000000
         46   0.500000000  -0.125000000   0.625000000
         47  -0.500000000  -0.125000000  -0.625000000
         48  -0.500000000   0.125000000   0.625000000

        q(  116 ) = (  -0.1250000   0.6250000  -0.5000000 )
        q(  117 ) = (   0.6250000  -0.1250000  -0.5000000 )
        q(  118 ) = (  -0.1250000   0.5000000  -0.6250000 )
        q(  119 ) = (   0.1250000   0.5000000  -0.6250000 )
        q(  120 ) = (  -0.1250000  -0.6250000   0.5000000 )
        q(  121 ) = (  -0.1250000  -0.5000000   0.6250000 )
        q(  122 ) = (   0.1250000  -0.6250000   0.5000000 )
        q(  123 ) = (   0.1250000  -0.5000000   0.6250000 )
        q(  124 ) = (  -0.6250000   0.5000000  -0.1250000 )
        q(  125 ) = (   0.5000000   0.1250000   0.6250000 )
        q(  126 ) = (  -0.5000000   0.1250000  -0.6250000 )
        q(  127 ) = (  -0.6250000   0.1250000  -0.5000000 )
        q(  128 ) = (   0.5000000  -0.1250000  -0.6250000 )
        q(  129 ) = (  -0.5000000  -0.1250000   0.6250000 )
        q(  130 ) = (   0.1250000   0.6250000   0.5000000 )
        q(  131 ) = (  -0.6250000  -0.1250000   0.5000000 )
        q(  132 ) = (   0.6250000   0.1250000   0.5000000 )
        q(  133 ) = (   0.5000000   0.6250000   0.1250000 )
        q(  134 ) = (   0.5000000  -0.6250000  -0.1250000 )
        q(  135 ) = (  -0.5000000  -0.6250000   0.1250000 )
        q(  136 ) = (  -0.6250000  -0.1250000  -0.5000000 )
        q(  137 ) = (   0.6250000  -0.5000000  -0.1250000 )
        q(  138 ) = (   0.1250000   0.5000000   0.6250000 )
        q(  139 ) = (   0.1250000  -0.5000000  -0.6250000 )
        q(  140 ) = (  -0.6250000   0.1250000   0.5000000 )
        q(  141 ) = (  -0.1250000   0.6250000   0.5000000 )
        q(  142 ) = (   0.6250000   0.1250000  -0.5000000 )
        q(  143 ) = (  -0.1250000  -0.5000000  -0.6250000 )
        q(  144 ) = (  -0.1250000  -0.6250000  -0.5000000 )
        q(  145 ) = (   0.1250000   0.6250000  -0.5000000 )
        q(  146 ) = (  -0.1250000   0.5000000   0.6250000 )
        q(  147 ) = (   0.1250000  -0.6250000  -0.5000000 )
        q(  148 ) = (  -0.5000000   0.6250000  -0.1250000 )
        q(  149 ) = (  -0.6250000  -0.5000000   0.1250000 )
        q(  150 ) = (   0.6250000   0.5000000   0.1250000 )
        q(  151 ) = (  -0.5000000  -0.6250000  -0.1250000 )
        q(  152 ) = (   0.5000000  -0.6250000   0.1250000 )
        q(  153 ) = (  -0.5000000   0.6250000   0.1250000 )
        q(  154 ) = (   0.5000000   0.6250000  -0.1250000 )
        q(  155 ) = (   0.6250000  -0.1250000   0.5000000 )
        q(  156 ) = (  -0.6250000   0.5000000   0.1250000 )
        q(  157 ) = (   0.6250000   0.5000000  -0.1250000 )
        q(  158 ) = (  -0.6250000  -0.5000000  -0.1250000 )
        q(  159 ) = (   0.6250000  -0.5000000   0.1250000 )
        q(  160 ) = (   0.5000000   0.1250000  -0.6250000 )
        q(  161 ) = (   0.5000000  -0.1250000   0.6250000 )
        q(  162 ) = (  -0.5000000  -0.1250000  -0.6250000 )
        q(  163 ) = (  -0.5000000   0.1250000   0.6250000 )


     ===================================================================
     irreducible q point #    9
     ===================================================================

     Symmetries of small group of q:  2

     Number of q in the star =   24
     List of q in the star:
          1  -0.250000000   0.750000000  -0.500000000
          2  -0.250000000   0.500000000  -0.750000000
          3   0.250000000   0.500000000  -0.750000000
          4  -0.250000000  -0.750000000   0.500000000
          5  -0.250000000  -0.500000000   0.750000000
          6   0.250000000  -0.750000000   0.500000000
          7   0.250000000  -0.500000000   0.750000000
          8  -0.750000000   0.500000000  -0.250000000
          9   0.500000000   0.250000000   0.750000000
         10  -0.500000000   0.250000000  -0.750000000
         11  -0.750000000   0.250000000  -0.500000000
         12   0.500000000  -0.250000000  -0.750000000
         13  -0.500000000  -0.250000000   0.750000000
         14   0.250000000   0.750000000   0.500000000
         15  -0.750000000  -0.250000000  -0.500000000
         16   0.250000000  -0.500000000  -0.750000000
         17  -0.250000000   0.750000000   0.500000000
         18   0.750000000   0.250000000  -0.500000000
         19  -0.250000000  -0.500000000  -0.750000000
         20  -0.250000000   0.500000000   0.750000000
         21  -0.500000000  -0.750000000  -0.250000000
         22   0.500000000  -0.750000000   0.250000000
         23  -0.500000000   0.750000000   0.250000000
         24   0.500000000   0.750000000  -0.250000000

        q(  164 ) = (  -0.2500000   0.7500000  -0.5000000 )
        q(  165 ) = (  -0.2500000   0.5000000  -0.7500000 )
        q(  166 ) = (   0.2500000   0.5000000  -0.7500000 )
        q(  167 ) = (  -0.2500000  -0.7500000   0.5000000 )
        q(  168 ) = (  -0.2500000  -0.5000000   0.7500000 )
        q(  169 ) = (   0.2500000  -0.7500000   0.5000000 )
        q(  170 ) = (   0.2500000  -0.5000000   0.7500000 )
        q(  171 ) = (  -0.7500000   0.5000000  -0.2500000 )
        q(  172 ) = (   0.5000000   0.2500000   0.7500000 )
        q(  173 ) = (  -0.5000000   0.2500000  -0.7500000 )
        q(  174 ) = (  -0.7500000   0.2500000  -0.5000000 )
        q(  175 ) = (   0.5000000  -0.2500000  -0.7500000 )
        q(  176 ) = (  -0.5000000  -0.2500000   0.7500000 )
        q(  177 ) = (   0.2500000   0.7500000   0.5000000 )
        q(  178 ) = (  -0.7500000  -0.2500000  -0.5000000 )
        q(  179 ) = (   0.2500000  -0.5000000  -0.7500000 )
        q(  180 ) = (  -0.2500000   0.7500000   0.5000000 )
        q(  181 ) = (   0.7500000   0.2500000  -0.5000000 )
        q(  182 ) = (  -0.2500000  -0.5000000  -0.7500000 )
        q(  183 ) = (  -0.2500000   0.5000000   0.7500000 )
        q(  184 ) = (  -0.5000000  -0.7500000  -0.2500000 )
        q(  185 ) = (   0.5000000  -0.7500000   0.2500000 )
        q(  186 ) = (  -0.5000000   0.7500000   0.2500000 )
        q(  187 ) = (   0.5000000   0.7500000  -0.2500000 )


     ===================================================================
     irreducible q point #   10
     ===================================================================

     Symmetries of small group of q:  2

     Number of q in the star =   24
     List of q in the star:
          1  -0.250000000   0.625000000  -0.375000000
          2  -0.250000000   0.375000000  -0.625000000
          3   0.250000000   0.375000000  -0.625000000
          4   0.625000000  -0.250000000  -0.375000000
          5   0.250000000  -0.375000000   0.625000000
          6  -0.625000000   0.375000000  -0.250000000
          7   0.375000000   0.250000000   0.625000000
          8  -0.375000000   0.250000000  -0.625000000
          9   0.375000000  -0.250000000  -0.625000000
         10   0.250000000   0.625000000   0.375000000
         11   0.375000000   0.625000000   0.250000000
         12  -0.375000000  -0.625000000   0.250000000
         13  -0.625000000  -0.250000000  -0.375000000
         14   0.625000000  -0.375000000  -0.250000000
         15   0.250000000   0.375000000   0.625000000
         16  -0.625000000   0.250000000   0.375000000
         17  -0.250000000   0.625000000   0.375000000
         18   0.625000000   0.250000000  -0.375000000
         19  -0.250000000  -0.625000000  -0.375000000
         20  -0.375000000  -0.625000000  -0.250000000
         21   0.375000000  -0.625000000   0.250000000
         22  -0.375000000   0.625000000   0.250000000
         23   0.375000000   0.625000000  -0.250000000
         24   0.625000000  -0.250000000   0.375000000

        q(  188 ) = (  -0.2500000   0.6250000  -0.3750000 )
        q(  189 ) = (  -0.2500000   0.3750000  -0.6250000 )
        q(  190 ) = (   0.2500000   0.3750000  -0.6250000 )
        q(  191 ) = (   0.6250000  -0.2500000  -0.3750000 )
        q(  192 ) = (   0.2500000  -0.3750000   0.6250000 )
        q(  193 ) = (  -0.6250000   0.3750000  -0.2500000 )
        q(  194 ) = (   0.3750000   0.2500000   0.6250000 )
        q(  195 ) = (  -0.3750000   0.2500000  -0.6250000 )
        q(  196 ) = (   0.3750000  -0.2500000  -0.6250000 )
        q(  197 ) = (   0.2500000   0.6250000   0.3750000 )
        q(  198 ) = (   0.3750000   0.6250000   0.2500000 )
        q(  199 ) = (  -0.3750000  -0.6250000   0.2500000 )
        q(  200 ) = (  -0.6250000  -0.2500000  -0.3750000 )
        q(  201 ) = (   0.6250000  -0.3750000  -0.2500000 )
        q(  202 ) = (   0.2500000   0.3750000   0.6250000 )
        q(  203 ) = (  -0.6250000   0.2500000   0.3750000 )
        q(  204 ) = (  -0.2500000   0.6250000   0.3750000 )
        q(  205 ) = (   0.6250000   0.2500000  -0.3750000 )
        q(  206 ) = (  -0.2500000  -0.6250000  -0.3750000 )
        q(  207 ) = (  -0.3750000  -0.6250000  -0.2500000 )
        q(  208 ) = (   0.3750000  -0.6250000   0.2500000 )
        q(  209 ) = (  -0.3750000   0.6250000   0.2500000 )
        q(  210 ) = (   0.3750000   0.6250000  -0.2500000 )
        q(  211 ) = (   0.6250000  -0.2500000   0.3750000 )


     ===================================================================
     irreducible q point #   11
     ===================================================================

     Symmetries of small group of q:  8

     Number of q in the star =    6
     List of q in the star:
          1   0.000000000   0.000000000   0.250000000
          2   0.000000000  -0.250000000   0.000000000
          3  -0.250000000   0.000000000   0.000000000
          4   0.250000000   0.000000000   0.000000000
          5   0.000000000   0.000000000  -0.250000000
          6   0.000000000   0.250000000   0.000000000

        q(  212 ) = (   0.0000000   0.0000000   0.2500000 )
        q(  213 ) = (   0.0000000  -0.2500000   0.0000000 )
        q(  214 ) = (  -0.2500000   0.0000000   0.0000000 )
        q(  215 ) = (   0.2500000   0.0000000   0.0000000 )
        q(  216 ) = (   0.0000000   0.0000000  -0.2500000 )
        q(  217 ) = (   0.0000000   0.2500000   0.0000000 )


[...]
          7  -0.500000000  -0.500000000  -0.250000000
          8  -0.500000000   0.250000000  -0.500000000
          9  -0.500000000  -0.250000000   0.500000000
         10   0.500000000  -0.500000000  -0.250000000
         11   0.250000000   0.500000000   0.500000000
         12  -0.250000000   0.500000000  -0.500000000

        q(  390 ) = (   0.5000000  -0.5000000   0.2500000 )
        q(  391 ) = (  -0.5000000   0.2500000   0.5000000 )
        q(  392 ) = (   0.2500000  -0.5000000   0.5000000 )
        q(  393 ) = (  -0.5000000  -0.5000000   0.2500000 )
        q(  394 ) = (   0.5000000  -0.2500000   0.5000000 )
        q(  395 ) = (  -0.2500000  -0.5000000  -0.5000000 )
        q(  396 ) = (  -0.5000000  -0.5000000  -0.2500000 )
        q(  397 ) = (  -0.5000000   0.2500000  -0.5000000 )
        q(  398 ) = (  -0.5000000  -0.2500000   0.5000000 )
        q(  399 ) = (   0.5000000  -0.5000000  -0.2500000 )
        q(  400 ) = (   0.2500000   0.5000000   0.5000000 )
        q(  401 ) = (  -0.2500000   0.5000000  -0.5000000 )


     ===================================================================
     irreducible q point #   21
     ===================================================================

     Symmetries of small group of q:  2

     Number of q in the star =   24
     List of q in the star:
          1   0.500000000  -0.625000000   0.375000000
          2  -0.625000000   0.500000000   0.375000000
          3  -0.500000000   0.625000000   0.375000000
          4  -0.625000000   0.375000000   0.500000000
          5  -0.500000000  -0.625000000   0.375000000
          6   0.625000000  -0.375000000   0.500000000
          7  -0.375000000  -0.500000000  -0.625000000
          8   0.375000000  -0.500000000   0.625000000
          9   0.500000000  -0.375000000   0.625000000
         10  -0.375000000   0.500000000   0.625000000
         11  -0.375000000  -0.625000000  -0.500000000
         12  -0.500000000  -0.625000000  -0.375000000
         13   0.375000000   0.625000000  -0.500000000
         14  -0.500000000  -0.375000000   0.625000000
         15   0.625000000  -0.500000000  -0.375000000
         16   0.500000000  -0.625000000  -0.375000000
         17  -0.625000000  -0.500000000   0.375000000
         18   0.500000000  -0.375000000  -0.625000000
         19   0.625000000   0.500000000   0.375000000
         20   0.375000000   0.625000000   0.500000000
         21  -0.375000000   0.625000000  -0.500000000
         22   0.375000000  -0.625000000  -0.500000000
         23  -0.375000000  -0.625000000   0.500000000
         24  -0.625000000   0.500000000  -0.375000000

        q(  402 ) = (   0.5000000  -0.6250000   0.3750000 )
        q(  403 ) = (  -0.6250000   0.5000000   0.3750000 )
        q(  404 ) = (  -0.5000000   0.6250000   0.3750000 )
        q(  405 ) = (  -0.6250000   0.3750000   0.5000000 )
        q(  406 ) = (  -0.5000000  -0.6250000   0.3750000 )
        q(  407 ) = (   0.6250000  -0.3750000   0.5000000 )
        q(  408 ) = (  -0.3750000  -0.5000000  -0.6250000 )
        q(  409 ) = (   0.3750000  -0.5000000   0.6250000 )
        q(  410 ) = (   0.5000000  -0.3750000   0.6250000 )
        q(  411 ) = (  -0.3750000   0.5000000   0.6250000 )
        q(  412 ) = (  -0.3750000  -0.6250000  -0.5000000 )
        q(  413 ) = (  -0.5000000  -0.6250000  -0.3750000 )
        q(  414 ) = (   0.3750000   0.6250000  -0.5000000 )
        q(  415 ) = (  -0.5000000  -0.3750000   0.6250000 )
        q(  416 ) = (   0.6250000  -0.5000000  -0.3750000 )
        q(  417 ) = (   0.5000000  -0.6250000  -0.3750000 )
        q(  418 ) = (  -0.6250000  -0.5000000   0.3750000 )
        q(  419 ) = (   0.5000000  -0.3750000  -0.6250000 )
        q(  420 ) = (   0.6250000   0.5000000   0.3750000 )
        q(  421 ) = (   0.3750000   0.6250000   0.5000000 )
        q(  422 ) = (  -0.3750000   0.6250000  -0.5000000 )
        q(  423 ) = (   0.3750000  -0.6250000  -0.5000000 )
        q(  424 ) = (  -0.3750000  -0.6250000   0.5000000 )
        q(  425 ) = (  -0.6250000   0.5000000  -0.3750000 )


     ===================================================================
     irreducible q point #   22
     ===================================================================

     Symmetries of small group of q:  8

     Number of q in the star =    6
     List of q in the star:
          1   0.000000000   0.000000000   0.500000000
          2   0.000000000  -0.500000000   0.000000000
          3  -0.500000000   0.000000000   0.000000000
          4   0.500000000   0.000000000   0.000000000
          5   0.000000000   0.000000000  -0.500000000
          6   0.000000000   0.500000000   0.000000000

        q(  426 ) = (   0.0000000   0.0000000   0.5000000 )
        q(  427 ) = (   0.0000000  -0.5000000   0.0000000 )
        q(  428 ) = (  -0.5000000   0.0000000   0.0000000 )
        q(  429 ) = (   0.5000000   0.0000000   0.0000000 )
        q(  430 ) = (   0.0000000   0.0000000  -0.5000000 )
        q(  431 ) = (   0.0000000   0.5000000   0.0000000 )


     ===================================================================
     irreducible q point #   23
     ===================================================================

     Symmetries of small group of q:  2

     Number of q in the star =   24
     List of q in the star:
          1   0.000000000  -0.125000000   0.625000000
          2   0.000000000   0.125000000   0.625000000
          3  -0.125000000   0.000000000   0.625000000
          4   0.125000000   0.000000000   0.625000000
          5   0.125000000  -0.625000000   0.000000000
          6  -0.625000000   0.000000000  -0.125000000
          7   0.625000000   0.000000000   0.125000000
          8   0.000000000  -0.625000000   0.125000000
          9  -0.625000000   0.000000000   0.125000000
         10  -0.625000000  -0.125000000   0.000000000
         11   0.000000000  -0.125000000  -0.625000000
         12   0.125000000   0.000000000  -0.625000000
         13  -0.125000000   0.000000000  -0.625000000
         14   0.000000000   0.625000000  -0.125000000
         15  -0.625000000   0.125000000   0.000000000
         16   0.625000000   0.125000000   0.000000000
         17  -0.125000000   0.625000000   0.000000000
         18   0.000000000  -0.625000000  -0.125000000
         19   0.000000000   0.625000000   0.125000000
         20   0.000000000   0.125000000  -0.625000000
         21   0.625000000  -0.125000000   0.000000000
         22   0.125000000   0.625000000   0.000000000
         23   0.625000000   0.000000000  -0.125000000
         24  -0.125000000  -0.625000000   0.000000000

        q(  432 ) = (   0.0000000  -0.1250000   0.6250000 )
        q(  433 ) = (   0.0000000   0.1250000   0.6250000 )
        q(  434 ) = (  -0.1250000   0.0000000   0.6250000 )
        q(  435 ) = (   0.1250000   0.0000000   0.6250000 )
        q(  436 ) = (   0.1250000  -0.6250000   0.0000000 )
        q(  437 ) = (  -0.6250000   0.0000000  -0.1250000 )
        q(  438 ) = (   0.6250000   0.0000000   0.1250000 )
        q(  439 ) = (   0.0000000  -0.6250000   0.1250000 )
        q(  440 ) = (  -0.6250000   0.0000000   0.1250000 )
        q(  441 ) = (  -0.6250000  -0.1250000   0.0000000 )
        q(  442 ) = (   0.0000000  -0.1250000  -0.6250000 )
        q(  443 ) = (   0.1250000   0.0000000  -0.6250000 )
        q(  444 ) = (  -0.1250000   0.0000000  -0.6250000 )
        q(  445 ) = (   0.0000000   0.6250000  -0.1250000 )
        q(  446 ) = (  -0.6250000   0.1250000   0.0000000 )
        q(  447 ) = (   0.6250000   0.1250000   0.0000000 )
        q(  448 ) = (  -0.1250000   0.6250000   0.0000000 )
        q(  449 ) = (   0.0000000  -0.6250000  -0.1250000 )
        q(  450 ) = (   0.0000000   0.6250000   0.1250000 )
        q(  451 ) = (   0.0000000   0.1250000  -0.6250000 )
        q(  452 ) = (   0.6250000  -0.1250000   0.0000000 )
        q(  453 ) = (   0.1250000   0.6250000   0.0000000 )
        q(  454 ) = (   0.6250000   0.0000000  -0.1250000 )
        q(  455 ) = (  -0.1250000  -0.6250000   0.0000000 )


     ===================================================================
     irreducible q point #   24
     ===================================================================

     Symmetries of small group of q:  4

     Number of q in the star =   12
     List of q in the star:
          1   0.000000000   0.750000000  -0.250000000
          2  -0.750000000   0.000000000  -0.250000000
          3   0.750000000   0.000000000  -0.250000000
          4   0.000000000  -0.750000000  -0.250000000
          5  -0.750000000   0.250000000   0.000000000
          6  -0.250000000   0.000000000  -0.750000000
          7   0.000000000   0.250000000  -0.750000000
          8   0.250000000   0.000000000  -0.750000000
          9   0.250000000   0.750000000   0.000000000
         10   0.000000000   0.750000000   0.250000000
         11  -0.250000000  -0.750000000   0.000000000
         12   0.750000000  -0.250000000   0.000000000

        q(  456 ) = (   0.0000000   0.7500000  -0.2500000 )
        q(  457 ) = (  -0.7500000   0.0000000  -0.2500000 )
        q(  458 ) = (   0.7500000   0.0000000  -0.2500000 )
        q(  459 ) = (   0.0000000  -0.7500000  -0.2500000 )
        q(  460 ) = (  -0.7500000   0.2500000   0.0000000 )
        q(  461 ) = (  -0.2500000   0.0000000  -0.7500000 )
        q(  462 ) = (   0.0000000   0.2500000  -0.7500000 )
        q(  463 ) = (   0.2500000   0.0000000  -0.7500000 )
        q(  464 ) = (   0.2500000   0.7500000   0.0000000 )
        q(  465 ) = (   0.0000000   0.7500000   0.2500000 )
        q(  466 ) = (  -0.2500000  -0.7500000   0.0000000 )
        q(  467 ) = (   0.7500000  -0.2500000   0.0000000 )


     ===================================================================
     irreducible q point #   25
     ===================================================================

     Symmetries of small group of q:  2

     Number of q in the star =   24
     List of q in the star:
          1  -0.125000000   0.875000000  -0.250000000
          2   0.125000000  -0.250000000   0.875000000
          3  -0.125000000  -0.250000000   0.875000000
          4  -0.875000000   0.125000000  -0.250000000
          5   0.875000000   0.125000000  -0.250000000
          6  -0.875000000  -0.125000000  -0.250000000
          7  -0.875000000   0.250000000  -0.125000000
          8   0.250000000   0.125000000   0.875000000
          9  -0.250000000   0.125000000  -0.875000000
         10  -0.125000000   0.250000000  -0.875000000
         11   0.250000000  -0.125000000  -0.875000000
         12   0.125000000   0.875000000   0.250000000
         13   0.875000000   0.125000000   0.250000000
         14   0.125000000   0.250000000  -0.875000000
         15   0.125000000  -0.250000000  -0.875000000
         16  -0.875000000   0.125000000   0.250000000
         17  -0.125000000   0.875000000   0.250000000
         18  -0.125000000  -0.250000000  -0.875000000
         19  -0.250000000   0.875000000  -0.125000000
         20  -0.125000000   0.250000000   0.875000000
         21  -0.250000000  -0.875000000  -0.125000000
         22   0.250000000  -0.875000000   0.125000000
         23  -0.250000000   0.875000000   0.125000000
         24   0.250000000   0.875000000  -0.125000000

        q(  468 ) = (  -0.1250000   0.8750000  -0.2500000 )
        q(  469 ) = (   0.1250000  -0.2500000   0.8750000 )
        q(  470 ) = (  -0.1250000  -0.2500000   0.8750000 )
        q(  471 ) = (  -0.8750000   0.1250000  -0.2500000 )
        q(  472 ) = (   0.8750000   0.1250000  -0.2500000 )
        q(  473 ) = (  -0.8750000  -0.1250000  -0.2500000 )
        q(  474 ) = (  -0.8750000   0.2500000  -0.1250000 )
        q(  475 ) = (   0.2500000   0.1250000   0.8750000 )
        q(  476 ) = (  -0.2500000   0.1250000  -0.8750000 )
        q(  477 ) = (  -0.1250000   0.2500000  -0.8750000 )
        q(  478 ) = (   0.2500000  -0.1250000  -0.8750000 )
        q(  479 ) = (   0.1250000   0.8750000   0.2500000 )
        q(  480 ) = (   0.8750000   0.1250000   0.2500000 )
        q(  481 ) = (   0.1250000   0.2500000  -0.8750000 )
        q(  482 ) = (   0.1250000  -0.2500000  -0.8750000 )
        q(  483 ) = (  -0.8750000   0.1250000   0.2500000 )
        q(  484 ) = (  -0.1250000   0.8750000   0.2500000 )
        q(  485 ) = (  -0.1250000  -0.2500000  -0.8750000 )
        q(  486 ) = (  -0.2500000   0.8750000  -0.1250000 )
        q(  487 ) = (  -0.1250000   0.2500000   0.8750000 )
        q(  488 ) = (  -0.2500000  -0.8750000  -0.1250000 )
        q(  489 ) = (   0.2500000  -0.8750000   0.1250000 )
        q(  490 ) = (  -0.2500000   0.8750000   0.1250000 )
        q(  491 ) = (   0.2500000   0.8750000  -0.1250000 )


     ===================================================================
     irreducible q point #   26
     ===================================================================

     Symmetries of small group of q: 24

     Number of q in the star =    2
     List of q in the star:
          1   0.500000000  -0.500000000   0.500000000
          2   0.500000000  -0.500000000  -0.500000000

        q(  492 ) = (   0.5000000  -0.5000000   0.5000000 )
        q(  493 ) = (   0.5000000  -0.5000000  -0.5000000 )


     ===================================================================
     irreducible q point #   27
     ===================================================================

     Symmetries of small group of q:  8

     Number of q in the star =    6
     List of q in the star:
          1   0.000000000   0.000000000   0.750000000
          2  -0.750000000   0.000000000   0.000000000
          3   0.000000000   0.000000000  -0.750000000
          4   0.000000000   0.750000000   0.000000000
          5   0.750000000   0.000000000   0.000000000
          6   0.000000000  -0.750000000   0.000000000

        q(  494 ) = (   0.0000000   0.0000000   0.7500000 )
        q(  495 ) = (  -0.7500000   0.0000000   0.0000000 )
        q(  496 ) = (   0.0000000   0.0000000  -0.7500000 )
        q(  497 ) = (   0.0000000   0.7500000   0.0000000 )
        q(  498 ) = (   0.7500000   0.0000000   0.0000000 )
        q(  499 ) = (   0.0000000  -0.7500000   0.0000000 )


     ===================================================================
     irreducible q point #   28
     ===================================================================

     Symmetries of small group of q:  4

     Number of q in the star =   12
     List of q in the star:
          1   0.000000000   0.875000000  -0.125000000
          2   0.000000000  -0.875000000  -0.125000000
          3   0.875000000   0.000000000  -0.125000000
          4  -0.875000000   0.000000000  -0.125000000
          5   0.125000000   0.000000000  -0.875000000
          6   0.125000000   0.875000000   0.000000000
          7   0.000000000   0.875000000   0.125000000
          8   0.875000000   0.000000000   0.125000000
          9   0.125000000  -0.875000000   0.000000000
         10  -0.125000000  -0.875000000   0.000000000
         11   0.875000000  -0.125000000   0.000000000
         12   0.000000000  -0.875000000   0.125000000

        q(  500 ) = (   0.0000000   0.8750000  -0.1250000 )
        q(  501 ) = (   0.0000000  -0.8750000  -0.1250000 )
        q(  502 ) = (   0.8750000   0.0000000  -0.1250000 )
        q(  503 ) = (  -0.8750000   0.0000000  -0.1250000 )
        q(  504 ) = (   0.1250000   0.0000000  -0.8750000 )
        q(  505 ) = (   0.1250000   0.8750000   0.0000000 )
        q(  506 ) = (   0.0000000   0.8750000   0.1250000 )
        q(  507 ) = (   0.8750000   0.0000000   0.1250000 )
        q(  508 ) = (   0.1250000  -0.8750000   0.0000000 )
        q(  509 ) = (  -0.1250000  -0.8750000   0.0000000 )
        q(  510 ) = (   0.8750000  -0.1250000   0.0000000 )
        q(  511 ) = (   0.0000000  -0.8750000   0.1250000 )


     ===================================================================
     irreducible q point #   29
     ===================================================================

     Symmetries of small group of q: 48
          in addition sym. q -> -q+G:

     Number of q in the star =    1
     List of q in the star:
          1   0.000000000   0.000000000  -1.000000000

        q(  512 ) = (   0.0000000   0.0000000  -1.0000000 )

     Writing epmatq on .epb files


     The .epb files have been correctly written

     Use zone-centred Wigner-Seitz cells 
     Number of WS vectors for electrons      597
     Number of WS vectors for phonons      597
     Number of WS vectors for electron-phonon      597
     Maximum number of cores for efficient parallelization     1791
     Results may improve by using use_ws == .true. 

     Writing Hamiltonian, Dynamical matrix and EP vertex in Wann rep to file


     Reading Hamiltonian, Dynamical matrix and EP vertex in Wann rep from file


     Finished reading Wann rep data from file

     ===================================================================
     Memory usage:  VmHWM =       195Mb
                   VmPeak =       445Mb
     ===================================================================
     
     Using uniform q-mesh:   24  24  24
     Size of q point mesh for interpolation:      13824
     Using uniform k-mesh:   48  48  48
     Size of k point mesh for interpolation:     221184
     Max number of k points per pool:            36864

     Fermi energy coarse grid =   0.957070 eV

     Fermi energy is calculated from the fine k-mesh: Ef =   0.931457 eV

     ===================================================================

              ibndmin =     2  ebndmin =    -0.203
              ibndmax =     4  ebndmax =     0.509


     Number of ep-matrix elements per pool :       497664 ~=    3.80 Mb (@ 8 bytes/ DP)

     ===================================================================
     Phonon (Imaginary) Self-Energy in the Migdal Approximation
     ===================================================================


     Fermi Surface thickness =   6.000000 eV

     Golden Rule strictly enforced with T =   0.025852 eV
     Gaussian Broadening:   0.020000 eV, ngauss=   1
     DOS =  0.217016 states/spin/eV/Unit Cell at Ef=  0.931457 eV

     ismear =     1 iq =       1 coord.:   0.00000  0.00000  0.00000 wt:   0.00007
     -------------------------------------------------------------------
     lambda___(   1 )=       0.000000   gamma___=       0.000000 meV   omega=     -0.0000 meV
     lambda_tr(   1 )=       0.000000   gamma_tr=       0.000000 meV   omega=     -0.0000 meV
     lambda___(   2 )=       0.000000   gamma___=       0.000000 meV   omega=     -0.0000 meV
     lambda_tr(   2 )=       0.000000   gamma_tr=       0.000000 meV   omega=     -0.0000 meV
     lambda___(   3 )=       0.000000   gamma___=       0.000000 meV   omega=     -0.0000 meV
     lambda_tr(   3 )=       0.000000   gamma_tr=       0.000000 meV   omega=     -0.0000 meV
     lambda___( tot )=       0.000000
     lambda_tr( tot )=       0.000000
     -------------------------------------------------------------------


     Number of (k,k+q) pairs on the Fermi surface:   110592 out of   110592


     ===================================================================
     Electron (Imaginary) Self-Energy in the Migdal Approximation
     ===================================================================


     Fermi Surface thickness =   6.000000 eV

     Golden Rule strictly enforced with T =   0.025852 eV
     Gaussian Broadening:   0.020000 eV, ngauss=   1
 

     Nr. of k-points on the uniform grid:    110592


     Finished writing .ikmap file 


     Size of allocated memory per pool : ~=    6.6515 Gb
--------------------------------------------------------------------------
mpiexec noticed that process rank 4 with PID 36846 on node compute-0-6.local exited on signal 9 (Killed).
--------------------------------------------------------------------------
